; P3HB_10_GMX.top created by acpype (v: 2023.10.27) on Tue Jun 23 10:37:59 2026

[ defaults ]
; nbfunc        comb-rule       gen-pairs       fudgeLJ fudgeQQ
1               2               yes             0.5     0.8333333333

[ atomtypes ]
;name                 mass     charge   ptype   sigma         epsilon       Amb
 c3                   0.00000  0.00000   A     3.39771e-01   4.51035e-01 ; 1.91  0.1078
 oh                   0.00000  0.00000   A     3.24287e-01   3.89112e-01 ; 1.82  0.0930
 ho                   0.00000  0.00000   A     5.37925e-02   1.96648e-02 ; 0.30  0.0047
 h1                   0.00000  0.00000   A     2.42200e-01   8.70272e-02 ; 1.36  0.0208
 hc                   0.00000  0.00000   A     2.60018e-01   8.70272e-02 ; 1.46  0.0208
 os                   0.00000  0.00000   A     3.15610e-01   3.03758e-01 ; 1.77  0.0726

[ moleculetype ]
;name            nrexcl
 P3HB_10          3

[ atoms ]
;   nr  type  resi  res  atom  cgnr     charge      mass       ; qtot   bond_type
     1   c3     1   AAB     C    1     0.171636     12.01000 ; qtot 0.172
     2   oh     1   AAB     O    2    -0.708141     16.00000 ; qtot -0.537
     3   ho     1   AAB     H    3     0.434032      1.00800 ; qtot -0.102
     4   h1     1   AAB    H1    4     0.044910      1.00800 ; qtot -0.058
     5   c3     1   AAB    C1    5    -0.100663     12.01000 ; qtot -0.158
     6   hc     1   AAB    H2    6     0.045223      1.00800 ; qtot -0.113
     7   hc     1   AAB    H3    7     0.045223      1.00800 ; qtot -0.068
     8   hc     1   AAB    H4    8     0.045223      1.00800 ; qtot -0.023
     9   c3     1   AAB    C2    9    -0.177193     12.01000 ; qtot -0.200
    10   hc     1   AAB    H5   10     0.092926      1.00800 ; qtot -0.107
    11   hc     1   AAB    H6   11     0.092926      1.00800 ; qtot -0.014
    12   c3     1   AAB    C3   12     0.561135     12.01000 ; qtot 0.547
    13   os     1   AAB    O1   13    -0.547244     16.00000 ; qtot -0.000
    14   os     2   AAC    O2   14    -0.458371     16.00000 ; qtot -0.458
    15   c3     2   AAC    C4   15     0.179155     12.01000 ; qtot -0.279
    16   c3     2   AAC    C5   16    -0.111190     12.01000 ; qtot -0.390
    17   hc     2   AAC    H8   17     0.054656      1.00800 ; qtot -0.336
    18   hc     2   AAC    H9   18     0.054656      1.00800 ; qtot -0.281
    19   hc     2   AAC   H10   19     0.054656      1.00800 ; qtot -0.226
    20   h1     2   AAC    H7   20     0.074639      1.00800 ; qtot -0.152
    21   c3     2   AAC    C6   21    -0.148520     12.01000 ; qtot -0.300
    22   hc     2   AAC   H11   22     0.108612      1.00800 ; qtot -0.192
    23   hc     2   AAC   H12   23     0.108612      1.00800 ; qtot -0.083
    24   c3     2   AAC    C7   24     0.598514     12.01000 ; qtot 0.515
    25   os     2   AAC    O3   25    -0.515418     16.00000 ; qtot -0.000
    26   os     3   AAC    O2   26    -0.458371     16.00000 ; qtot -0.458
    27   c3     3   AAC    C4   27     0.179155     12.01000 ; qtot -0.279
    28   c3     3   AAC    C5   28    -0.111190     12.01000 ; qtot -0.390
    29   hc     3   AAC    H8   29     0.054656      1.00800 ; qtot -0.336
    30   hc     3   AAC    H9   30     0.054656      1.00800 ; qtot -0.281
    31   hc     3   AAC   H10   31     0.054656      1.00800 ; qtot -0.226
    32   h1     3   AAC    H7   32     0.074639      1.00800 ; qtot -0.152
    33   c3     3   AAC    C6   33    -0.148520     12.01000 ; qtot -0.300
    34   hc     3   AAC   H11   34     0.108612      1.00800 ; qtot -0.192
    35   hc     3   AAC   H12   35     0.108612      1.00800 ; qtot -0.083
    36   c3     3   AAC    C7   36     0.598514     12.01000 ; qtot 0.515
    37   os     3   AAC    O3   37    -0.515418     16.00000 ; qtot -0.000
    38   os     4   AAC    O2   38    -0.458371     16.00000 ; qtot -0.458
    39   c3     4   AAC    C4   39     0.179155     12.01000 ; qtot -0.279
    40   c3     4   AAC    C5   40    -0.111190     12.01000 ; qtot -0.390
    41   hc     4   AAC    H8   41     0.054656      1.00800 ; qtot -0.336
    42   hc     4   AAC    H9   42     0.054656      1.00800 ; qtot -0.281
    43   hc     4   AAC   H10   43     0.054656      1.00800 ; qtot -0.226
    44   h1     4   AAC    H7   44     0.074639      1.00800 ; qtot -0.152
    45   c3     4   AAC    C6   45    -0.148520     12.01000 ; qtot -0.300
    46   hc     4   AAC   H11   46     0.108612      1.00800 ; qtot -0.192
    47   hc     4   AAC   H12   47     0.108612      1.00800 ; qtot -0.083
    48   c3     4   AAC    C7   48     0.598514     12.01000 ; qtot 0.515
    49   os     4   AAC    O3   49    -0.515418     16.00000 ; qtot -0.000
    50   os     5   AAC    O2   50    -0.458371     16.00000 ; qtot -0.458
    51   c3     5   AAC    C4   51     0.179155     12.01000 ; qtot -0.279
    52   c3     5   AAC    C5   52    -0.111190     12.01000 ; qtot -0.390
    53   hc     5   AAC    H8   53     0.054656      1.00800 ; qtot -0.336
    54   hc     5   AAC    H9   54     0.054656      1.00800 ; qtot -0.281
    55   hc     5   AAC   H10   55     0.054656      1.00800 ; qtot -0.226
    56   h1     5   AAC    H7   56     0.074639      1.00800 ; qtot -0.152
    57   c3     5   AAC    C6   57    -0.148520     12.01000 ; qtot -0.300
    58   hc     5   AAC   H11   58     0.108612      1.00800 ; qtot -0.192
    59   hc     5   AAC   H12   59     0.108612      1.00800 ; qtot -0.083
    60   c3     5   AAC    C7   60     0.598514     12.01000 ; qtot 0.515
    61   os     5   AAC    O3   61    -0.515418     16.00000 ; qtot -0.000
    62   os     6   AAC    O2   62    -0.458371     16.00000 ; qtot -0.458
    63   c3     6   AAC    C4   63     0.179155     12.01000 ; qtot -0.279
    64   c3     6   AAC    C5   64    -0.111190     12.01000 ; qtot -0.390
    65   hc     6   AAC    H8   65     0.054656      1.00800 ; qtot -0.336
    66   hc     6   AAC    H9   66     0.054656      1.00800 ; qtot -0.281
    67   hc     6   AAC   H10   67     0.054656      1.00800 ; qtot -0.226
    68   h1     6   AAC    H7   68     0.074639      1.00800 ; qtot -0.152
    69   c3     6   AAC    C6   69    -0.148520     12.01000 ; qtot -0.300
    70   hc     6   AAC   H11   70     0.108612      1.00800 ; qtot -0.192
    71   hc     6   AAC   H12   71     0.108612      1.00800 ; qtot -0.083
    72   c3     6   AAC    C7   72     0.598514     12.01000 ; qtot 0.515
    73   os     6   AAC    O3   73    -0.515418     16.00000 ; qtot -0.000
    74   os     7   AAC    O2   74    -0.458371     16.00000 ; qtot -0.458
    75   c3     7   AAC    C4   75     0.179155     12.01000 ; qtot -0.279
    76   c3     7   AAC    C5   76    -0.111190     12.01000 ; qtot -0.390
    77   hc     7   AAC    H8   77     0.054656      1.00800 ; qtot -0.336
    78   hc     7   AAC    H9   78     0.054656      1.00800 ; qtot -0.281
    79   hc     7   AAC   H10   79     0.054656      1.00800 ; qtot -0.226
    80   h1     7   AAC    H7   80     0.074639      1.00800 ; qtot -0.152
    81   c3     7   AAC    C6   81    -0.148520     12.01000 ; qtot -0.300
    82   hc     7   AAC   H11   82     0.108612      1.00800 ; qtot -0.192
    83   hc     7   AAC   H12   83     0.108612      1.00800 ; qtot -0.083
    84   c3     7   AAC    C7   84     0.598514     12.01000 ; qtot 0.515
    85   os     7   AAC    O3   85    -0.515418     16.00000 ; qtot -0.000
    86   os     8   AAC    O2   86    -0.458371     16.00000 ; qtot -0.458
    87   c3     8   AAC    C4   87     0.179155     12.01000 ; qtot -0.279
    88   c3     8   AAC    C5   88    -0.111190     12.01000 ; qtot -0.390
    89   hc     8   AAC    H8   89     0.054656      1.00800 ; qtot -0.336
    90   hc     8   AAC    H9   90     0.054656      1.00800 ; qtot -0.281
    91   hc     8   AAC   H10   91     0.054656      1.00800 ; qtot -0.226
    92   h1     8   AAC    H7   92     0.074639      1.00800 ; qtot -0.152
    93   c3     8   AAC    C6   93    -0.148520     12.01000 ; qtot -0.300
    94   hc     8   AAC   H11   94     0.108612      1.00800 ; qtot -0.192
    95   hc     8   AAC   H12   95     0.108612      1.00800 ; qtot -0.083
    96   c3     8   AAC    C7   96     0.598514     12.01000 ; qtot 0.515
    97   os     8   AAC    O3   97    -0.515418     16.00000 ; qtot -0.000
    98   os     9   AAC    O2   98    -0.458371     16.00000 ; qtot -0.458
    99   c3     9   AAC    C4   99     0.179155     12.01000 ; qtot -0.279
   100   c3     9   AAC    C5  100    -0.111190     12.01000 ; qtot -0.390
   101   hc     9   AAC    H8  101     0.054656      1.00800 ; qtot -0.336
   102   hc     9   AAC    H9  102     0.054656      1.00800 ; qtot -0.281
   103   hc     9   AAC   H10  103     0.054656      1.00800 ; qtot -0.226
   104   h1     9   AAC    H7  104     0.074639      1.00800 ; qtot -0.152
   105   c3     9   AAC    C6  105    -0.148520     12.01000 ; qtot -0.300
   106   hc     9   AAC   H11  106     0.108612      1.00800 ; qtot -0.192
   107   hc     9   AAC   H12  107     0.108612      1.00800 ; qtot -0.083
   108   c3     9   AAC    C7  108     0.598514     12.01000 ; qtot 0.515
   109   os     9   AAC    O3  109    -0.515418     16.00000 ; qtot 0.000
   110   os    10   AAD    O4  110    -0.432582     16.00000 ; qtot -0.433
   111   c3    10   AAD    C8  111     0.187457     12.01000 ; qtot -0.245
   112   c3    10   AAD    C9  112    -0.105394     12.01000 ; qtot -0.351
   113   hc    10   AAD   H14  113     0.058210      1.00800 ; qtot -0.292
   114   hc    10   AAD   H15  114     0.058210      1.00800 ; qtot -0.234
   115   hc    10   AAD   H16  115     0.058210      1.00800 ; qtot -0.176
   116   h1    10   AAD   H13  116     0.080639      1.00800 ; qtot -0.095
   117   c3    10   AAD   C10  117    -0.142676     12.01000 ; qtot -0.238
   118   hc    10   AAD   H17  118     0.097986      1.00800 ; qtot -0.140
   119   hc    10   AAD   H18  119     0.097986      1.00800 ; qtot -0.042
   120   c3    10   AAD   C11  120     0.617145     12.01000 ; qtot 0.575
   121   os    10   AAD    O5  121    -0.483809     16.00000 ; qtot 0.091
   122   oh    10   AAD    O6  122    -0.583417     16.00000 ; qtot -0.492
   123   ho    10   AAD   H19  123     0.492034      1.00800 ; qtot 0.000

[ bonds ]
;   ai     aj funct   r             k
     1      2   1    1.4242e-01    2.3861e+05 ;      C - O     
     1      4   1    1.0969e-01    2.8804e+05 ;      C - H1    
     1      5   1    1.5354e-01    1.9154e+05 ;      C - C1    
     2      3   1    9.7250e-02    4.4811e+05 ;      O - H     
     5      6   1    1.0962e-01    2.8891e+05 ;     C1 - H2    
     5      7   1    1.0962e-01    2.8891e+05 ;     C1 - H3    
     5      8   1    1.0962e-01    2.8891e+05 ;     C1 - H4    
     5      9   1    1.5354e-01    1.9154e+05 ;     C1 - C2    
     9     10   1    1.0962e-01    2.8891e+05 ;     C2 - H5    
     9     11   1    1.0962e-01    2.8891e+05 ;     C2 - H6    
     9     12   1    1.5354e-01    1.9154e+05 ;     C2 - C3    
    12     13   1    1.4273e-01    2.3620e+05 ;     C3 - O1    
    12     14   1    1.4273e-01    2.3620e+05 ;     C3 - O2    
    14     15   1    1.4273e-01    2.3620e+05 ;     O2 - C4    
    15     16   1    1.5354e-01    1.9154e+05 ;     C4 - C5    
    15     20   1    1.0969e-01    2.8804e+05 ;     C4 - H7    
    15     21   1    1.5354e-01    1.9154e+05 ;     C4 - C6    
    16     17   1    1.0962e-01    2.8891e+05 ;     C5 - H8    
    16     18   1    1.0962e-01    2.8891e+05 ;     C5 - H9    
    16     19   1    1.0962e-01    2.8891e+05 ;     C5 - H10   
    21     22   1    1.0962e-01    2.8891e+05 ;     C6 - H11   
    21     23   1    1.0962e-01    2.8891e+05 ;     C6 - H12   
    21     24   1    1.5354e-01    1.9154e+05 ;     C6 - C7    
    24     25   1    1.4273e-01    2.3620e+05 ;     C7 - O3    
    24     26   1    1.4273e-01    2.3620e+05 ;     C7 - O2    
    26     27   1    1.4273e-01    2.3620e+05 ;     O2 - C4    
    27     28   1    1.5354e-01    1.9154e+05 ;     C4 - C5    
    27     32   1    1.0969e-01    2.8804e+05 ;     C4 - H7    
    27     33   1    1.5354e-01    1.9154e+05 ;     C4 - C6    
    28     29   1    1.0962e-01    2.8891e+05 ;     C5 - H8    
    28     30   1    1.0962e-01    2.8891e+05 ;     C5 - H9    
    28     31   1    1.0962e-01    2.8891e+05 ;     C5 - H10   
    33     34   1    1.0962e-01    2.8891e+05 ;     C6 - H11   
    33     35   1    1.0962e-01    2.8891e+05 ;     C6 - H12   
    33     36   1    1.5354e-01    1.9154e+05 ;     C6 - C7    
    36     37   1    1.4273e-01    2.3620e+05 ;     C7 - O3    
    36     38   1    1.4273e-01    2.3620e+05 ;     C7 - O2    
    38     39   1    1.4273e-01    2.3620e+05 ;     O2 - C4    
    39     40   1    1.5354e-01    1.9154e+05 ;     C4 - C5    
    39     44   1    1.0969e-01    2.8804e+05 ;     C4 - H7    
    39     45   1    1.5354e-01    1.9154e+05 ;     C4 - C6    
    40     41   1    1.0962e-01    2.8891e+05 ;     C5 - H8    
    40     42   1    1.0962e-01    2.8891e+05 ;     C5 - H9    
    40     43   1    1.0962e-01    2.8891e+05 ;     C5 - H10   
    45     46   1    1.0962e-01    2.8891e+05 ;     C6 - H11   
    45     47   1    1.0962e-01    2.8891e+05 ;     C6 - H12   
    45     48   1    1.5354e-01    1.9154e+05 ;     C6 - C7    
    48     49   1    1.4273e-01    2.3620e+05 ;     C7 - O3    
    48     50   1    1.4273e-01    2.3620e+05 ;     C7 - O2    
    50     51   1    1.4273e-01    2.3620e+05 ;     O2 - C4    
    51     52   1    1.5354e-01    1.9154e+05 ;     C4 - C5    
    51     56   1    1.0969e-01    2.8804e+05 ;     C4 - H7    
    51     57   1    1.5354e-01    1.9154e+05 ;     C4 - C6    
    52     53   1    1.0962e-01    2.8891e+05 ;     C5 - H8    
    52     54   1    1.0962e-01    2.8891e+05 ;     C5 - H9    
    52     55   1    1.0962e-01    2.8891e+05 ;     C5 - H10   
    57     58   1    1.0962e-01    2.8891e+05 ;     C6 - H11   
    57     59   1    1.0962e-01    2.8891e+05 ;     C6 - H12   
    57     60   1    1.5354e-01    1.9154e+05 ;     C6 - C7    
    60     61   1    1.4273e-01    2.3620e+05 ;     C7 - O3    
    60     62   1    1.4273e-01    2.3620e+05 ;     C7 - O2    
    62     63   1    1.4273e-01    2.3620e+05 ;     O2 - C4    
    63     64   1    1.5354e-01    1.9154e+05 ;     C4 - C5    
    63     68   1    1.0969e-01    2.8804e+05 ;     C4 - H7    
    63     69   1    1.5354e-01    1.9154e+05 ;     C4 - C6    
    64     65   1    1.0962e-01    2.8891e+05 ;     C5 - H8    
    64     66   1    1.0962e-01    2.8891e+05 ;     C5 - H9    
    64     67   1    1.0962e-01    2.8891e+05 ;     C5 - H10   
    69     70   1    1.0962e-01    2.8891e+05 ;     C6 - H11   
    69     71   1    1.0962e-01    2.8891e+05 ;     C6 - H12   
    69     72   1    1.5354e-01    1.9154e+05 ;     C6 - C7    
    72     73   1    1.4273e-01    2.3620e+05 ;     C7 - O3    
    72     74   1    1.4273e-01    2.3620e+05 ;     C7 - O2    
    74     75   1    1.4273e-01    2.3620e+05 ;     O2 - C4    
    75     76   1    1.5354e-01    1.9154e+05 ;     C4 - C5    
    75     80   1    1.0969e-01    2.8804e+05 ;     C4 - H7    
    75     81   1    1.5354e-01    1.9154e+05 ;     C4 - C6    
    76     77   1    1.0962e-01    2.8891e+05 ;     C5 - H8    
    76     78   1    1.0962e-01    2.8891e+05 ;     C5 - H9    
    76     79   1    1.0962e-01    2.8891e+05 ;     C5 - H10   
    81     82   1    1.0962e-01    2.8891e+05 ;     C6 - H11   
    81     83   1    1.0962e-01    2.8891e+05 ;     C6 - H12   
    81     84   1    1.5354e-01    1.9154e+05 ;     C6 - C7    
    84     85   1    1.4273e-01    2.3620e+05 ;     C7 - O3    
    84     86   1    1.4273e-01    2.3620e+05 ;     C7 - O2    
    86     87   1    1.4273e-01    2.3620e+05 ;     O2 - C4    
    87     88   1    1.5354e-01    1.9154e+05 ;     C4 - C5    
    87     92   1    1.0969e-01    2.8804e+05 ;     C4 - H7    
    87     93   1    1.5354e-01    1.9154e+05 ;     C4 - C6    
    88     89   1    1.0962e-01    2.8891e+05 ;     C5 - H8    
    88     90   1    1.0962e-01    2.8891e+05 ;     C5 - H9    
    88     91   1    1.0962e-01    2.8891e+05 ;     C5 - H10   
    93     94   1    1.0962e-01    2.8891e+05 ;     C6 - H11   
    93     95   1    1.0962e-01    2.8891e+05 ;     C6 - H12   
    93     96   1    1.5354e-01    1.9154e+05 ;     C6 - C7    
    96     97   1    1.4273e-01    2.3620e+05 ;     C7 - O3    
    96     98   1    1.4273e-01    2.3620e+05 ;     C7 - O2    
    98     99   1    1.4273e-01    2.3620e+05 ;     O2 - C4    
    99    100   1    1.5354e-01    1.9154e+05 ;     C4 - C5    
    99    104   1    1.0969e-01    2.8804e+05 ;     C4 - H7    
    99    105   1    1.5354e-01    1.9154e+05 ;     C4 - C6    
   100    101   1    1.0962e-01    2.8891e+05 ;     C5 - H8    
   100    102   1    1.0962e-01    2.8891e+05 ;     C5 - H9    
   100    103   1    1.0962e-01    2.8891e+05 ;     C5 - H10   
   105    106   1    1.0962e-01    2.8891e+05 ;     C6 - H11   
   105    107   1    1.0962e-01    2.8891e+05 ;     C6 - H12   
   105    108   1    1.5354e-01    1.9154e+05 ;     C6 - C7    
   108    109   1    1.4273e-01    2.3620e+05 ;     C7 - O3    
   108    110   1    1.4273e-01    2.3620e+05 ;     C7 - O4    
   110    111   1    1.4273e-01    2.3620e+05 ;     O4 - C8    
   111    112   1    1.5354e-01    1.9154e+05 ;     C8 - C9    
   111    116   1    1.0969e-01    2.8804e+05 ;     C8 - H13   
   111    117   1    1.5354e-01    1.9154e+05 ;     C8 - C10   
   112    113   1    1.0962e-01    2.8891e+05 ;     C9 - H14   
   112    114   1    1.0962e-01    2.8891e+05 ;     C9 - H15   
   112    115   1    1.0962e-01    2.8891e+05 ;     C9 - H16   
   117    118   1    1.0962e-01    2.8891e+05 ;    C10 - H17   
   117    119   1    1.0962e-01    2.8891e+05 ;    C10 - H18   
   117    120   1    1.5354e-01    1.9154e+05 ;    C10 - C11   
   120    121   1    1.4273e-01    2.3620e+05 ;    C11 - O5    
   121    122   1    1.4565e-01    1.2175e+05 ;     O5 - O6    
   122    123   1    9.7250e-02    4.4811e+05 ;     O6 - H19   

[ pairs ]
;   ai     aj    funct
     1     10      1 ;      C - H5    
     1     11      1 ;      C - H6    
     1     12      1 ;      C - C3    
     2      6      1 ;      O - H2    
     2      7      1 ;      O - H3    
     2      8      1 ;      O - H4    
     2      9      1 ;      O - C2    
     4      3      1 ;     H1 - H     
     4      6      1 ;     H1 - H2    
     4      7      1 ;     H1 - H3    
     4      8      1 ;     H1 - H4    
     4      9      1 ;     H1 - C2    
     5      3      1 ;     C1 - H     
     5     13      1 ;     C1 - O1    
     5     14      1 ;     C1 - O2    
     6     10      1 ;     H2 - H5    
     6     11      1 ;     H2 - H6    
     6     12      1 ;     H2 - C3    
     7     10      1 ;     H3 - H5    
     7     11      1 ;     H3 - H6    
     7     12      1 ;     H3 - C3    
     8     10      1 ;     H4 - H5    
     8     11      1 ;     H4 - H6    
     8     12      1 ;     H4 - C3    
     9     15      1 ;     C2 - C4    
    10     13      1 ;     H5 - O1    
    10     14      1 ;     H5 - O2    
    11     13      1 ;     H6 - O1    
    11     14      1 ;     H6 - O2    
    12     16      1 ;     C3 - C5    
    12     20      1 ;     C3 - H7    
    12     21      1 ;     C3 - C6    
    13     15      1 ;     O1 - C4    
    14     17      1 ;     O2 - H8    
    14     18      1 ;     O2 - H9    
    14     19      1 ;     O2 - H10   
    14     22      1 ;     O2 - H11   
    14     23      1 ;     O2 - H12   
    14     24      1 ;     O2 - C7    
    15     25      1 ;     C4 - O3    
    15     26      1 ;     C4 - O2    
    16     22      1 ;     C5 - H11   
    16     23      1 ;     C5 - H12   
    16     24      1 ;     C5 - C7    
    17     20      1 ;     H8 - H7    
    17     21      1 ;     H8 - C6    
    18     20      1 ;     H9 - H7    
    18     21      1 ;     H9 - C6    
    19     20      1 ;    H10 - H7    
    19     21      1 ;    H10 - C6    
    20     22      1 ;     H7 - H11   
    20     23      1 ;     H7 - H12   
    20     24      1 ;     H7 - C7    
    21     27      1 ;     C6 - C4    
    22     25      1 ;    H11 - O3    
    22     26      1 ;    H11 - O2    
    23     25      1 ;    H12 - O3    
    23     26      1 ;    H12 - O2    
    24     28      1 ;     C7 - C5    
    24     32      1 ;     C7 - H7    
    24     33      1 ;     C7 - C6    
    25     27      1 ;     O3 - C4    
    26     29      1 ;     O2 - H8    
    26     30      1 ;     O2 - H9    
    26     31      1 ;     O2 - H10   
    26     34      1 ;     O2 - H11   
    26     35      1 ;     O2 - H12   
    26     36      1 ;     O2 - C7    
    27     37      1 ;     C4 - O3    
    27     38      1 ;     C4 - O2    
    28     34      1 ;     C5 - H11   
    28     35      1 ;     C5 - H12   
    28     36      1 ;     C5 - C7    
    29     32      1 ;     H8 - H7    
    29     33      1 ;     H8 - C6    
    30     32      1 ;     H9 - H7    
    30     33      1 ;     H9 - C6    
    31     32      1 ;    H10 - H7    
    31     33      1 ;    H10 - C6    
    32     34      1 ;     H7 - H11   
    32     35      1 ;     H7 - H12   
    32     36      1 ;     H7 - C7    
    33     39      1 ;     C6 - C4    
    34     37      1 ;    H11 - O3    
    34     38      1 ;    H11 - O2    
    35     37      1 ;    H12 - O3    
    35     38      1 ;    H12 - O2    
    36     40      1 ;     C7 - C5    
    36     44      1 ;     C7 - H7    
    36     45      1 ;     C7 - C6    
    37     39      1 ;     O3 - C4    
    38     41      1 ;     O2 - H8    
    38     42      1 ;     O2 - H9    
    38     43      1 ;     O2 - H10   
    38     46      1 ;     O2 - H11   
    38     47      1 ;     O2 - H12   
    38     48      1 ;     O2 - C7    
    39     49      1 ;     C4 - O3    
    39     50      1 ;     C4 - O2    
    40     46      1 ;     C5 - H11   
    40     47      1 ;     C5 - H12   
    40     48      1 ;     C5 - C7    
    41     44      1 ;     H8 - H7    
    41     45      1 ;     H8 - C6    
    42     44      1 ;     H9 - H7    
    42     45      1 ;     H9 - C6    
    43     44      1 ;    H10 - H7    
    43     45      1 ;    H10 - C6    
    44     46      1 ;     H7 - H11   
    44     47      1 ;     H7 - H12   
    44     48      1 ;     H7 - C7    
    45     51      1 ;     C6 - C4    
    46     49      1 ;    H11 - O3    
    46     50      1 ;    H11 - O2    
    47     49      1 ;    H12 - O3    
    47     50      1 ;    H12 - O2    
    48     52      1 ;     C7 - C5    
    48     56      1 ;     C7 - H7    
    48     57      1 ;     C7 - C6    
    49     51      1 ;     O3 - C4    
    50     53      1 ;     O2 - H8    
    50     54      1 ;     O2 - H9    
    50     55      1 ;     O2 - H10   
    50     58      1 ;     O2 - H11   
    50     59      1 ;     O2 - H12   
    50     60      1 ;     O2 - C7    
    51     61      1 ;     C4 - O3    
    51     62      1 ;     C4 - O2    
    52     58      1 ;     C5 - H11   
    52     59      1 ;     C5 - H12   
    52     60      1 ;     C5 - C7    
    53     56      1 ;     H8 - H7    
    53     57      1 ;     H8 - C6    
    54     56      1 ;     H9 - H7    
    54     57      1 ;     H9 - C6    
    55     56      1 ;    H10 - H7    
    55     57      1 ;    H10 - C6    
    56     58      1 ;     H7 - H11   
    56     59      1 ;     H7 - H12   
    56     60      1 ;     H7 - C7    
    57     63      1 ;     C6 - C4    
    58     61      1 ;    H11 - O3    
    58     62      1 ;    H11 - O2    
    59     61      1 ;    H12 - O3    
    59     62      1 ;    H12 - O2    
    60     64      1 ;     C7 - C5    
    60     68      1 ;     C7 - H7    
    60     69      1 ;     C7 - C6    
    61     63      1 ;     O3 - C4    
    62     65      1 ;     O2 - H8    
    62     66      1 ;     O2 - H9    
    62     67      1 ;     O2 - H10   
    62     70      1 ;     O2 - H11   
    62     71      1 ;     O2 - H12   
    62     72      1 ;     O2 - C7    
    63     73      1 ;     C4 - O3    
    63     74      1 ;     C4 - O2    
    64     70      1 ;     C5 - H11   
    64     71      1 ;     C5 - H12   
    64     72      1 ;     C5 - C7    
    65     68      1 ;     H8 - H7    
    65     69      1 ;     H8 - C6    
    66     68      1 ;     H9 - H7    
    66     69      1 ;     H9 - C6    
    67     68      1 ;    H10 - H7    
    67     69      1 ;    H10 - C6    
    68     70      1 ;     H7 - H11   
    68     71      1 ;     H7 - H12   
    68     72      1 ;     H7 - C7    
    69     75      1 ;     C6 - C4    
    70     73      1 ;    H11 - O3    
    70     74      1 ;    H11 - O2    
    71     73      1 ;    H12 - O3    
    71     74      1 ;    H12 - O2    
    72     76      1 ;     C7 - C5    
    72     80      1 ;     C7 - H7    
    72     81      1 ;     C7 - C6    
    73     75      1 ;     O3 - C4    
    74     77      1 ;     O2 - H8    
    74     78      1 ;     O2 - H9    
    74     79      1 ;     O2 - H10   
    74     82      1 ;     O2 - H11   
    74     83      1 ;     O2 - H12   
    74     84      1 ;     O2 - C7    
    75     85      1 ;     C4 - O3    
    75     86      1 ;     C4 - O2    
    76     82      1 ;     C5 - H11   
    76     83      1 ;     C5 - H12   
    76     84      1 ;     C5 - C7    
    77     80      1 ;     H8 - H7    
    77     81      1 ;     H8 - C6    
    78     80      1 ;     H9 - H7    
    78     81      1 ;     H9 - C6    
    79     80      1 ;    H10 - H7    
    79     81      1 ;    H10 - C6    
    80     82      1 ;     H7 - H11   
    80     83      1 ;     H7 - H12   
    80     84      1 ;     H7 - C7    
    81     87      1 ;     C6 - C4    
    82     85      1 ;    H11 - O3    
    82     86      1 ;    H11 - O2    
    83     85      1 ;    H12 - O3    
    83     86      1 ;    H12 - O2    
    84     88      1 ;     C7 - C5    
    84     92      1 ;     C7 - H7    
    84     93      1 ;     C7 - C6    
    85     87      1 ;     O3 - C4    
    86     89      1 ;     O2 - H8    
    86     90      1 ;     O2 - H9    
    86     91      1 ;     O2 - H10   
    86     94      1 ;     O2 - H11   
    86     95      1 ;     O2 - H12   
    86     96      1 ;     O2 - C7    
    87     97      1 ;     C4 - O3    
    87     98      1 ;     C4 - O2    
    88     94      1 ;     C5 - H11   
    88     95      1 ;     C5 - H12   
    88     96      1 ;     C5 - C7    
    89     92      1 ;     H8 - H7    
    89     93      1 ;     H8 - C6    
    90     92      1 ;     H9 - H7    
    90     93      1 ;     H9 - C6    
    91     92      1 ;    H10 - H7    
    91     93      1 ;    H10 - C6    
    92     94      1 ;     H7 - H11   
    92     95      1 ;     H7 - H12   
    92     96      1 ;     H7 - C7    
    93     99      1 ;     C6 - C4    
    94     97      1 ;    H11 - O3    
    94     98      1 ;    H11 - O2    
    95     97      1 ;    H12 - O3    
    95     98      1 ;    H12 - O2    
    96    100      1 ;     C7 - C5    
    96    104      1 ;     C7 - H7    
    96    105      1 ;     C7 - C6    
    97     99      1 ;     O3 - C4    
    98    101      1 ;     O2 - H8    
    98    102      1 ;     O2 - H9    
    98    103      1 ;     O2 - H10   
    98    106      1 ;     O2 - H11   
    98    107      1 ;     O2 - H12   
    98    108      1 ;     O2 - C7    
    99    109      1 ;     C4 - O3    
    99    110      1 ;     C4 - O4    
   100    106      1 ;     C5 - H11   
   100    107      1 ;     C5 - H12   
   100    108      1 ;     C5 - C7    
   101    104      1 ;     H8 - H7    
   101    105      1 ;     H8 - C6    
   102    104      1 ;     H9 - H7    
   102    105      1 ;     H9 - C6    
   103    104      1 ;    H10 - H7    
   103    105      1 ;    H10 - C6    
   104    106      1 ;     H7 - H11   
   104    107      1 ;     H7 - H12   
   104    108      1 ;     H7 - C7    
   105    111      1 ;     C6 - C8    
   106    109      1 ;    H11 - O3    
   106    110      1 ;    H11 - O4    
   107    109      1 ;    H12 - O3    
   107    110      1 ;    H12 - O4    
   108    112      1 ;     C7 - C9    
   108    116      1 ;     C7 - H13   
   108    117      1 ;     C7 - C10   
   109    111      1 ;     O3 - C8    
   110    113      1 ;     O4 - H14   
   110    114      1 ;     O4 - H15   
   110    115      1 ;     O4 - H16   
   110    118      1 ;     O4 - H17   
   110    119      1 ;     O4 - H18   
   110    120      1 ;     O4 - C11   
   111    121      1 ;     C8 - O5    
   112    118      1 ;     C9 - H17   
   112    119      1 ;     C9 - H18   
   112    120      1 ;     C9 - C11   
   113    116      1 ;    H14 - H13   
   113    117      1 ;    H14 - C10   
   114    116      1 ;    H15 - H13   
   114    117      1 ;    H15 - C10   
   115    116      1 ;    H16 - H13   
   115    117      1 ;    H16 - C10   
   116    118      1 ;    H13 - H17   
   116    119      1 ;    H13 - H18   
   116    120      1 ;    H13 - C11   
   117    122      1 ;    C10 - O6    
   118    121      1 ;    H17 - O5    
   119    121      1 ;    H18 - O5    
   120    123      1 ;    C11 - H19   

[ angles ]
;   ai     aj     ak    funct   theta         cth
     1      2      3      1    1.0739e+02    5.4501e+02 ;      C - O      - H     
     1      5      6      1    1.0968e+02    3.6208e+02 ;      C - C1     - H2    
     1      5      7      1    1.0968e+02    3.6208e+02 ;      C - C1     - H3    
     1      5      8      1    1.0968e+02    3.6208e+02 ;      C - C1     - H4    
     1      5      9      1    1.1263e+02    5.0099e+02 ;      C - C1     - C2    
     2      1      4      1    1.1038e+02    4.7103e+02 ;      O - C      - H1    
     2      1      5      1    1.0966e+02    6.4258e+02 ;      O - C      - C1    
     4      1      5      1    1.0959e+02    3.6217e+02 ;     H1 - C      - C1    
     5      9     10      1    1.0968e+02    3.6208e+02 ;     C1 - C2     - H5    
     5      9     11      1    1.0968e+02    3.6208e+02 ;     C1 - C2     - H6    
     5      9     12      1    1.1263e+02    5.0099e+02 ;     C1 - C2     - C3    
     6      5      7      1    1.0773e+02    2.9957e+02 ;     H2 - C1     - H3    
     6      5      8      1    1.0773e+02    2.9957e+02 ;     H2 - C1     - H4    
     6      5      9      1    1.0968e+02    3.6208e+02 ;     H2 - C1     - C2    
     7      5      8      1    1.0773e+02    2.9957e+02 ;     H3 - C1     - H4    
     7      5      9      1    1.0968e+02    3.6208e+02 ;     H3 - C1     - C2    
     8      5      9      1    1.0968e+02    3.6208e+02 ;     H4 - C1     - C2    
     9     12     13      1    1.0762e+02    6.4802e+02 ;     C2 - C3     - O1    
     9     12     14      1    1.0762e+02    6.4802e+02 ;     C2 - C3     - O2    
    10      9     11      1    1.0773e+02    2.9957e+02 ;     H5 - C2     - H6    
    10      9     12      1    1.0968e+02    3.6208e+02 ;     H5 - C2     - C3    
    11      9     12      1    1.0968e+02    3.6208e+02 ;     H6 - C2     - C3    
    12     14     15      1    1.1360e+02    7.3915e+02 ;     C3 - O2     - C4    
    13     12     14      1    1.0789e+02    8.2375e+02 ;     O1 - C3     - O2    
    14     15     16      1    1.0762e+02    6.4802e+02 ;     O2 - C4     - C5    
    14     15     20      1    1.1034e+02    4.7028e+02 ;     O2 - C4     - H7    
    14     15     21      1    1.0762e+02    6.4802e+02 ;     O2 - C4     - C6    
    15     16     17      1    1.0968e+02    3.6208e+02 ;     C4 - C5     - H8    
    15     16     18      1    1.0968e+02    3.6208e+02 ;     C4 - C5     - H9    
    15     16     19      1    1.0968e+02    3.6208e+02 ;     C4 - C5     - H10   
    15     21     22      1    1.0968e+02    3.6208e+02 ;     C4 - C6     - H11   
    15     21     23      1    1.0968e+02    3.6208e+02 ;     C4 - C6     - H12   
    15     21     24      1    1.1263e+02    5.0099e+02 ;     C4 - C6     - C7    
    16     15     20      1    1.0959e+02    3.6217e+02 ;     C5 - C4     - H7    
    16     15     21      1    1.1263e+02    5.0099e+02 ;     C5 - C4     - C6    
    17     16     18      1    1.0773e+02    2.9957e+02 ;     H8 - C5     - H9    
    17     16     19      1    1.0773e+02    2.9957e+02 ;     H8 - C5     - H10   
    18     16     19      1    1.0773e+02    2.9957e+02 ;     H9 - C5     - H10   
    20     15     21      1    1.0959e+02    3.6217e+02 ;     H7 - C4     - C6    
    21     24     25      1    1.0762e+02    6.4802e+02 ;     C6 - C7     - O3    
    21     24     26      1    1.0762e+02    6.4802e+02 ;     C6 - C7     - O2    
    22     21     23      1    1.0773e+02    2.9957e+02 ;    H11 - C6     - H12   
    22     21     24      1    1.0968e+02    3.6208e+02 ;    H11 - C6     - C7    
    23     21     24      1    1.0968e+02    3.6208e+02 ;    H12 - C6     - C7    
    24     26     27      1    1.1360e+02    7.3915e+02 ;     C7 - O2     - C4    
    25     24     26      1    1.0789e+02    8.2375e+02 ;     O3 - C7     - O2    
    26     27     28      1    1.0762e+02    6.4802e+02 ;     O2 - C4     - C5    
    26     27     32      1    1.1034e+02    4.7028e+02 ;     O2 - C4     - H7    
    26     27     33      1    1.0762e+02    6.4802e+02 ;     O2 - C4     - C6    
    27     28     29      1    1.0968e+02    3.6208e+02 ;     C4 - C5     - H8    
    27     28     30      1    1.0968e+02    3.6208e+02 ;     C4 - C5     - H9    
    27     28     31      1    1.0968e+02    3.6208e+02 ;     C4 - C5     - H10   
    27     33     34      1    1.0968e+02    3.6208e+02 ;     C4 - C6     - H11   
    27     33     35      1    1.0968e+02    3.6208e+02 ;     C4 - C6     - H12   
    27     33     36      1    1.1263e+02    5.0099e+02 ;     C4 - C6     - C7    
    28     27     32      1    1.0959e+02    3.6217e+02 ;     C5 - C4     - H7    
    28     27     33      1    1.1263e+02    5.0099e+02 ;     C5 - C4     - C6    
    29     28     30      1    1.0773e+02    2.9957e+02 ;     H8 - C5     - H9    
    29     28     31      1    1.0773e+02    2.9957e+02 ;     H8 - C5     - H10   
    30     28     31      1    1.0773e+02    2.9957e+02 ;     H9 - C5     - H10   
    32     27     33      1    1.0959e+02    3.6217e+02 ;     H7 - C4     - C6    
    33     36     37      1    1.0762e+02    6.4802e+02 ;     C6 - C7     - O3    
    33     36     38      1    1.0762e+02    6.4802e+02 ;     C6 - C7     - O2    
    34     33     35      1    1.0773e+02    2.9957e+02 ;    H11 - C6     - H12   
    34     33     36      1    1.0968e+02    3.6208e+02 ;    H11 - C6     - C7    
    35     33     36      1    1.0968e+02    3.6208e+02 ;    H12 - C6     - C7    
    36     38     39      1    1.1360e+02    7.3915e+02 ;     C7 - O2     - C4    
    37     36     38      1    1.0789e+02    8.2375e+02 ;     O3 - C7     - O2    
    38     39     40      1    1.0762e+02    6.4802e+02 ;     O2 - C4     - C5    
    38     39     44      1    1.1034e+02    4.7028e+02 ;     O2 - C4     - H7    
    38     39     45      1    1.0762e+02    6.4802e+02 ;     O2 - C4     - C6    
    39     40     41      1    1.0968e+02    3.6208e+02 ;     C4 - C5     - H8    
    39     40     42      1    1.0968e+02    3.6208e+02 ;     C4 - C5     - H9    
    39     40     43      1    1.0968e+02    3.6208e+02 ;     C4 - C5     - H10   
    39     45     46      1    1.0968e+02    3.6208e+02 ;     C4 - C6     - H11   
    39     45     47      1    1.0968e+02    3.6208e+02 ;     C4 - C6     - H12   
    39     45     48      1    1.1263e+02    5.0099e+02 ;     C4 - C6     - C7    
    40     39     44      1    1.0959e+02    3.6217e+02 ;     C5 - C4     - H7    
    40     39     45      1    1.1263e+02    5.0099e+02 ;     C5 - C4     - C6    
    41     40     42      1    1.0773e+02    2.9957e+02 ;     H8 - C5     - H9    
    41     40     43      1    1.0773e+02    2.9957e+02 ;     H8 - C5     - H10   
    42     40     43      1    1.0773e+02    2.9957e+02 ;     H9 - C5     - H10   
    44     39     45      1    1.0959e+02    3.6217e+02 ;     H7 - C4     - C6    
    45     48     49      1    1.0762e+02    6.4802e+02 ;     C6 - C7     - O3    
    45     48     50      1    1.0762e+02    6.4802e+02 ;     C6 - C7     - O2    
    46     45     47      1    1.0773e+02    2.9957e+02 ;    H11 - C6     - H12   
    46     45     48      1    1.0968e+02    3.6208e+02 ;    H11 - C6     - C7    
    47     45     48      1    1.0968e+02    3.6208e+02 ;    H12 - C6     - C7    
    48     50     51      1    1.1360e+02    7.3915e+02 ;     C7 - O2     - C4    
    49     48     50      1    1.0789e+02    8.2375e+02 ;     O3 - C7     - O2    
    50     51     52      1    1.0762e+02    6.4802e+02 ;     O2 - C4     - C5    
    50     51     56      1    1.1034e+02    4.7028e+02 ;     O2 - C4     - H7    
    50     51     57      1    1.0762e+02    6.4802e+02 ;     O2 - C4     - C6    
    51     52     53      1    1.0968e+02    3.6208e+02 ;     C4 - C5     - H8    
    51     52     54      1    1.0968e+02    3.6208e+02 ;     C4 - C5     - H9    
    51     52     55      1    1.0968e+02    3.6208e+02 ;     C4 - C5     - H10   
    51     57     58      1    1.0968e+02    3.6208e+02 ;     C4 - C6     - H11   
    51     57     59      1    1.0968e+02    3.6208e+02 ;     C4 - C6     - H12   
    51     57     60      1    1.1263e+02    5.0099e+02 ;     C4 - C6     - C7    
    52     51     56      1    1.0959e+02    3.6217e+02 ;     C5 - C4     - H7    
    52     51     57      1    1.1263e+02    5.0099e+02 ;     C5 - C4     - C6    
    53     52     54      1    1.0773e+02    2.9957e+02 ;     H8 - C5     - H9    
    53     52     55      1    1.0773e+02    2.9957e+02 ;     H8 - C5     - H10   
    54     52     55      1    1.0773e+02    2.9957e+02 ;     H9 - C5     - H10   
    56     51     57      1    1.0959e+02    3.6217e+02 ;     H7 - C4     - C6    
    57     60     61      1    1.0762e+02    6.4802e+02 ;     C6 - C7     - O3    
    57     60     62      1    1.0762e+02    6.4802e+02 ;     C6 - C7     - O2    
    58     57     59      1    1.0773e+02    2.9957e+02 ;    H11 - C6     - H12   
    58     57     60      1    1.0968e+02    3.6208e+02 ;    H11 - C6     - C7    
    59     57     60      1    1.0968e+02    3.6208e+02 ;    H12 - C6     - C7    
    60     62     63      1    1.1360e+02    7.3915e+02 ;     C7 - O2     - C4    
    61     60     62      1    1.0789e+02    8.2375e+02 ;     O3 - C7     - O2    
    62     63     64      1    1.0762e+02    6.4802e+02 ;     O2 - C4     - C5    
    62     63     68      1    1.1034e+02    4.7028e+02 ;     O2 - C4     - H7    
    62     63     69      1    1.0762e+02    6.4802e+02 ;     O2 - C4     - C6    
    63     64     65      1    1.0968e+02    3.6208e+02 ;     C4 - C5     - H8    
    63     64     66      1    1.0968e+02    3.6208e+02 ;     C4 - C5     - H9    
    63     64     67      1    1.0968e+02    3.6208e+02 ;     C4 - C5     - H10   
    63     69     70      1    1.0968e+02    3.6208e+02 ;     C4 - C6     - H11   
    63     69     71      1    1.0968e+02    3.6208e+02 ;     C4 - C6     - H12   
    63     69     72      1    1.1263e+02    5.0099e+02 ;     C4 - C6     - C7    
    64     63     68      1    1.0959e+02    3.6217e+02 ;     C5 - C4     - H7    
    64     63     69      1    1.1263e+02    5.0099e+02 ;     C5 - C4     - C6    
    65     64     66      1    1.0773e+02    2.9957e+02 ;     H8 - C5     - H9    
    65     64     67      1    1.0773e+02    2.9957e+02 ;     H8 - C5     - H10   
    66     64     67      1    1.0773e+02    2.9957e+02 ;     H9 - C5     - H10   
    68     63     69      1    1.0959e+02    3.6217e+02 ;     H7 - C4     - C6    
    69     72     73      1    1.0762e+02    6.4802e+02 ;     C6 - C7     - O3    
    69     72     74      1    1.0762e+02    6.4802e+02 ;     C6 - C7     - O2    
    70     69     71      1    1.0773e+02    2.9957e+02 ;    H11 - C6     - H12   
    70     69     72      1    1.0968e+02    3.6208e+02 ;    H11 - C6     - C7    
    71     69     72      1    1.0968e+02    3.6208e+02 ;    H12 - C6     - C7    
    72     74     75      1    1.1360e+02    7.3915e+02 ;     C7 - O2     - C4    
    73     72     74      1    1.0789e+02    8.2375e+02 ;     O3 - C7     - O2    
    74     75     76      1    1.0762e+02    6.4802e+02 ;     O2 - C4     - C5    
    74     75     80      1    1.1034e+02    4.7028e+02 ;     O2 - C4     - H7    
    74     75     81      1    1.0762e+02    6.4802e+02 ;     O2 - C4     - C6    
    75     76     77      1    1.0968e+02    3.6208e+02 ;     C4 - C5     - H8    
    75     76     78      1    1.0968e+02    3.6208e+02 ;     C4 - C5     - H9    
    75     76     79      1    1.0968e+02    3.6208e+02 ;     C4 - C5     - H10   
    75     81     82      1    1.0968e+02    3.6208e+02 ;     C4 - C6     - H11   
    75     81     83      1    1.0968e+02    3.6208e+02 ;     C4 - C6     - H12   
    75     81     84      1    1.1263e+02    5.0099e+02 ;     C4 - C6     - C7    
    76     75     80      1    1.0959e+02    3.6217e+02 ;     C5 - C4     - H7    
    76     75     81      1    1.1263e+02    5.0099e+02 ;     C5 - C4     - C6    
    77     76     78      1    1.0773e+02    2.9957e+02 ;     H8 - C5     - H9    
    77     76     79      1    1.0773e+02    2.9957e+02 ;     H8 - C5     - H10   
    78     76     79      1    1.0773e+02    2.9957e+02 ;     H9 - C5     - H10   
    80     75     81      1    1.0959e+02    3.6217e+02 ;     H7 - C4     - C6    
    81     84     85      1    1.0762e+02    6.4802e+02 ;     C6 - C7     - O3    
    81     84     86      1    1.0762e+02    6.4802e+02 ;     C6 - C7     - O2    
    82     81     83      1    1.0773e+02    2.9957e+02 ;    H11 - C6     - H12   
    82     81     84      1    1.0968e+02    3.6208e+02 ;    H11 - C6     - C7    
    83     81     84      1    1.0968e+02    3.6208e+02 ;    H12 - C6     - C7    
    84     86     87      1    1.1360e+02    7.3915e+02 ;     C7 - O2     - C4    
    85     84     86      1    1.0789e+02    8.2375e+02 ;     O3 - C7     - O2    
    86     87     88      1    1.0762e+02    6.4802e+02 ;     O2 - C4     - C5    
    86     87     92      1    1.1034e+02    4.7028e+02 ;     O2 - C4     - H7    
    86     87     93      1    1.0762e+02    6.4802e+02 ;     O2 - C4     - C6    
    87     88     89      1    1.0968e+02    3.6208e+02 ;     C4 - C5     - H8    
    87     88     90      1    1.0968e+02    3.6208e+02 ;     C4 - C5     - H9    
    87     88     91      1    1.0968e+02    3.6208e+02 ;     C4 - C5     - H10   
    87     93     94      1    1.0968e+02    3.6208e+02 ;     C4 - C6     - H11   
    87     93     95      1    1.0968e+02    3.6208e+02 ;     C4 - C6     - H12   
    87     93     96      1    1.1263e+02    5.0099e+02 ;     C4 - C6     - C7    
    88     87     92      1    1.0959e+02    3.6217e+02 ;     C5 - C4     - H7    
    88     87     93      1    1.1263e+02    5.0099e+02 ;     C5 - C4     - C6    
    89     88     90      1    1.0773e+02    2.9957e+02 ;     H8 - C5     - H9    
    89     88     91      1    1.0773e+02    2.9957e+02 ;     H8 - C5     - H10   
    90     88     91      1    1.0773e+02    2.9957e+02 ;     H9 - C5     - H10   
    92     87     93      1    1.0959e+02    3.6217e+02 ;     H7 - C4     - C6    
    93     96     97      1    1.0762e+02    6.4802e+02 ;     C6 - C7     - O3    
    93     96     98      1    1.0762e+02    6.4802e+02 ;     C6 - C7     - O2    
    94     93     95      1    1.0773e+02    2.9957e+02 ;    H11 - C6     - H12   
    94     93     96      1    1.0968e+02    3.6208e+02 ;    H11 - C6     - C7    
    95     93     96      1    1.0968e+02    3.6208e+02 ;    H12 - C6     - C7    
    96     98     99      1    1.1360e+02    7.3915e+02 ;     C7 - O2     - C4    
    97     96     98      1    1.0789e+02    8.2375e+02 ;     O3 - C7     - O2    
    98     99    100      1    1.0762e+02    6.4802e+02 ;     O2 - C4     - C5    
    98     99    104      1    1.1034e+02    4.7028e+02 ;     O2 - C4     - H7    
    98     99    105      1    1.0762e+02    6.4802e+02 ;     O2 - C4     - C6    
    99    100    101      1    1.0968e+02    3.6208e+02 ;     C4 - C5     - H8    
    99    100    102      1    1.0968e+02    3.6208e+02 ;     C4 - C5     - H9    
    99    100    103      1    1.0968e+02    3.6208e+02 ;     C4 - C5     - H10   
    99    105    106      1    1.0968e+02    3.6208e+02 ;     C4 - C6     - H11   
    99    105    107      1    1.0968e+02    3.6208e+02 ;     C4 - C6     - H12   
    99    105    108      1    1.1263e+02    5.0099e+02 ;     C4 - C6     - C7    
   100     99    104      1    1.0959e+02    3.6217e+02 ;     C5 - C4     - H7    
   100     99    105      1    1.1263e+02    5.0099e+02 ;     C5 - C4     - C6    
   101    100    102      1    1.0773e+02    2.9957e+02 ;     H8 - C5     - H9    
   101    100    103      1    1.0773e+02    2.9957e+02 ;     H8 - C5     - H10   
   102    100    103      1    1.0773e+02    2.9957e+02 ;     H9 - C5     - H10   
   104     99    105      1    1.0959e+02    3.6217e+02 ;     H7 - C4     - C6    
   105    108    109      1    1.0762e+02    6.4802e+02 ;     C6 - C7     - O3    
   105    108    110      1    1.0762e+02    6.4802e+02 ;     C6 - C7     - O4    
   106    105    107      1    1.0773e+02    2.9957e+02 ;    H11 - C6     - H12   
   106    105    108      1    1.0968e+02    3.6208e+02 ;    H11 - C6     - C7    
   107    105    108      1    1.0968e+02    3.6208e+02 ;    H12 - C6     - C7    
   108    110    111      1    1.1360e+02    7.3915e+02 ;     C7 - O4     - C8    
   109    108    110      1    1.0789e+02    8.2375e+02 ;     O3 - C7     - O4    
   110    111    112      1    1.0762e+02    6.4802e+02 ;     O4 - C8     - C9    
   110    111    116      1    1.1034e+02    4.7028e+02 ;     O4 - C8     - H13   
   110    111    117      1    1.0762e+02    6.4802e+02 ;     O4 - C8     - C10   
   111    112    113      1    1.0968e+02    3.6208e+02 ;     C8 - C9     - H14   
   111    112    114      1    1.0968e+02    3.6208e+02 ;     C8 - C9     - H15   
   111    112    115      1    1.0968e+02    3.6208e+02 ;     C8 - C9     - H16   
   111    117    118      1    1.0968e+02    3.6208e+02 ;     C8 - C10    - H17   
   111    117    119      1    1.0968e+02    3.6208e+02 ;     C8 - C10    - H18   
   111    117    120      1    1.1263e+02    5.0099e+02 ;     C8 - C10    - C11   
   112    111    116      1    1.0959e+02    3.6217e+02 ;     C9 - C8     - H13   
   112    111    117      1    1.1263e+02    5.0099e+02 ;     C9 - C8     - C10   
   113    112    114      1    1.0773e+02    2.9957e+02 ;    H14 - C9     - H15   
   113    112    115      1    1.0773e+02    2.9957e+02 ;    H14 - C9     - H16   
   114    112    115      1    1.0773e+02    2.9957e+02 ;    H15 - C9     - H16   
   116    111    117      1    1.0959e+02    3.6217e+02 ;    H13 - C8     - C10   
   117    120    121      1    1.0762e+02    6.4802e+02 ;    C10 - C11    - O5    
   118    117    119      1    1.0773e+02    2.9957e+02 ;    H17 - C10    - H18   
   118    117    120      1    1.0968e+02    3.6208e+02 ;    H17 - C10    - C11   
   119    117    120      1    1.0968e+02    3.6208e+02 ;    H18 - C10    - C11   
   120    121    122      1    1.0843e+02    9.1579e+02 ;    C11 - O5     - O6    
   121    122    123      1    9.9670e+01    6.7697e+02 ;     O5 - O6     - H19   

[ dihedrals ] ; propers
; for gromacs 4.5 or higher, using funct 9
;    i      j      k      l   func   phase     kd      pn
     1      5      9     10      9     0.00   0.54392   3 ;      C-    C1-    C2-    H5
     1      5      9     11      9     0.00   0.54392   3 ;      C-    C1-    C2-    H6
     1      5      9     12      9     0.00   2.17568   3 ;      C-    C1-    C2-    C3
     2      1      5      6      9     0.00   0.37656   3 ;      O-     C-    C1-    H2
     2      1      5      7      9     0.00   0.37656   3 ;      O-     C-    C1-    H3
     2      1      5      8      9     0.00   0.37656   3 ;      O-     C-    C1-    H4
     2      1      5      9      9     0.00   0.75312   3 ;      O-     C-    C1-    C2
     4      1      2      3      9     0.00   0.51463   3 ;     H1-     C-     O-     H
     4      1      5      6      9     0.00   0.65084   3 ;     H1-     C-    C1-    H2
     4      1      5      7      9     0.00   0.65084   3 ;     H1-     C-    C1-    H3
     4      1      5      8      9     0.00   0.65084   3 ;     H1-     C-    C1-    H4
     4      1      5      9      9     0.00   0.65084   3 ;     H1-     C-    C1-    C2
     5      1      2      3      9     0.00   0.25104   3 ;     C1-     C-     O-     H
     5      9     12     13      9     0.00   0.65084   3 ;     C1-    C2-    C3-    O1
     5      9     12     14      9     0.00   0.65084   3 ;     C1-    C2-    C3-    O2
     6      5      9     10      9     0.00   0.50208   3 ;     H2-    C1-    C2-    H5
     6      5      9     11      9     0.00   0.50208   3 ;     H2-    C1-    C2-    H6
     6      5      9     12      9     0.00   0.54392   3 ;     H2-    C1-    C2-    C3
     7      5      9     10      9     0.00   0.50208   3 ;     H3-    C1-    C2-    H5
     7      5      9     11      9     0.00   0.50208   3 ;     H3-    C1-    C2-    H6
     7      5      9     12      9     0.00   0.54392   3 ;     H3-    C1-    C2-    C3
     8      5      9     10      9     0.00   0.50208   3 ;     H4-    C1-    C2-    H5
     8      5      9     11      9     0.00   0.50208   3 ;     H4-    C1-    C2-    H6
     8      5      9     12      9     0.00   0.54392   3 ;     H4-    C1-    C2-    C3
     9     12     14     15      9     0.00   0.33472   2 ;     C2-    C3-    O2-    C4
     9     12     14     15      9     0.00   3.13800   3 ;     C2-    C3-    O2-    C4
     9     12     14     15      9   180.00   3.68192   1 ;     C2-    C3-    O2-    C4
    10      9     12     13      9     0.00   0.00000   0 ;     H5-    C2-    C3-    O1
    10      9     12     13      9     0.00   1.04600   1 ;     H5-    C2-    C3-    O1
    10      9     12     14      9     0.00   0.00000   0 ;     H5-    C2-    C3-    O2
    10      9     12     14      9     0.00   1.04600   1 ;     H5-    C2-    C3-    O2
    11      9     12     13      9     0.00   0.00000   0 ;     H6-    C2-    C3-    O1
    11      9     12     13      9     0.00   1.04600   1 ;     H6-    C2-    C3-    O1
    11      9     12     14      9     0.00   0.00000   0 ;     H6-    C2-    C3-    O2
    11      9     12     14      9     0.00   1.04600   1 ;     H6-    C2-    C3-    O2
    12     14     15     16      9     0.00   0.33472   2 ;     C3-    O2-    C4-    C5
    12     14     15     16      9     0.00   3.13800   3 ;     C3-    O2-    C4-    C5
    12     14     15     16      9   180.00   3.68192   1 ;     C3-    O2-    C4-    C5
    12     14     15     20      9     0.00   1.41001   3 ;     C3-    O2-    C4-    H7
    12     14     15     21      9     0.00   0.33472   2 ;     C3-    O2-    C4-    C6
    12     14     15     21      9     0.00   3.13800   3 ;     C3-    O2-    C4-    C6
    12     14     15     21      9   180.00   3.68192   1 ;     C3-    O2-    C4-    C6
    13     12     14     15      9     0.00   3.55640   2 ;     O1-    C3-    O2-    C4
    13     12     14     15      9     0.00   3.55640   3 ;     O1-    C3-    O2-    C4
    13     12     14     15      9   180.00   1.92464   1 ;     O1-    C3-    O2-    C4
    14     15     16     17      9     0.00   0.00000   0 ;     O2-    C4-    C5-    H8
    14     15     16     17      9     0.00   1.04600   1 ;     O2-    C4-    C5-    H8
    14     15     16     18      9     0.00   0.00000   0 ;     O2-    C4-    C5-    H9
    14     15     16     18      9     0.00   1.04600   1 ;     O2-    C4-    C5-    H9
    14     15     16     19      9     0.00   0.00000   0 ;     O2-    C4-    C5-   H10
    14     15     16     19      9     0.00   1.04600   1 ;     O2-    C4-    C5-   H10
    14     15     21     22      9     0.00   0.00000   0 ;     O2-    C4-    C6-   H11
    14     15     21     22      9     0.00   1.04600   1 ;     O2-    C4-    C6-   H11
    14     15     21     23      9     0.00   0.00000   0 ;     O2-    C4-    C6-   H12
    14     15     21     23      9     0.00   1.04600   1 ;     O2-    C4-    C6-   H12
    14     15     21     24      9     0.00   0.65084   3 ;     O2-    C4-    C6-    C7
    15     21     24     25      9     0.00   0.65084   3 ;     C4-    C6-    C7-    O3
    15     21     24     26      9     0.00   0.65084   3 ;     C4-    C6-    C7-    O2
    16     15     21     22      9     0.00   0.54392   3 ;     C5-    C4-    C6-   H11
    16     15     21     23      9     0.00   0.54392   3 ;     C5-    C4-    C6-   H12
    16     15     21     24      9     0.00   2.17568   3 ;     C5-    C4-    C6-    C7
    17     16     15     20      9     0.00   0.65084   3 ;     H8-    C5-    C4-    H7
    17     16     15     21      9     0.00   0.54392   3 ;     H8-    C5-    C4-    C6
    18     16     15     20      9     0.00   0.65084   3 ;     H9-    C5-    C4-    H7
    18     16     15     21      9     0.00   0.54392   3 ;     H9-    C5-    C4-    C6
    19     16     15     20      9     0.00   0.65084   3 ;    H10-    C5-    C4-    H7
    19     16     15     21      9     0.00   0.54392   3 ;    H10-    C5-    C4-    C6
    20     15     21     22      9     0.00   0.65084   3 ;     H7-    C4-    C6-   H11
    20     15     21     23      9     0.00   0.65084   3 ;     H7-    C4-    C6-   H12
    20     15     21     24      9     0.00   0.65084   3 ;     H7-    C4-    C6-    C7
    21     24     26     27      9     0.00   0.33472   2 ;     C6-    C7-    O2-    C4
    21     24     26     27      9     0.00   3.13800   3 ;     C6-    C7-    O2-    C4
    21     24     26     27      9   180.00   3.68192   1 ;     C6-    C7-    O2-    C4
    22     21     24     25      9     0.00   0.00000   0 ;    H11-    C6-    C7-    O3
    22     21     24     25      9     0.00   1.04600   1 ;    H11-    C6-    C7-    O3
    22     21     24     26      9     0.00   0.00000   0 ;    H11-    C6-    C7-    O2
    22     21     24     26      9     0.00   1.04600   1 ;    H11-    C6-    C7-    O2
    23     21     24     25      9     0.00   0.00000   0 ;    H12-    C6-    C7-    O3
    23     21     24     25      9     0.00   1.04600   1 ;    H12-    C6-    C7-    O3
    23     21     24     26      9     0.00   0.00000   0 ;    H12-    C6-    C7-    O2
    23     21     24     26      9     0.00   1.04600   1 ;    H12-    C6-    C7-    O2
    24     26     27     28      9     0.00   0.33472   2 ;     C7-    O2-    C4-    C5
    24     26     27     28      9     0.00   3.13800   3 ;     C7-    O2-    C4-    C5
    24     26     27     28      9   180.00   3.68192   1 ;     C7-    O2-    C4-    C5
    24     26     27     32      9     0.00   1.41001   3 ;     C7-    O2-    C4-    H7
    24     26     27     33      9     0.00   0.33472   2 ;     C7-    O2-    C4-    C6
    24     26     27     33      9     0.00   3.13800   3 ;     C7-    O2-    C4-    C6
    24     26     27     33      9   180.00   3.68192   1 ;     C7-    O2-    C4-    C6
    25     24     26     27      9     0.00   3.55640   2 ;     O3-    C7-    O2-    C4
    25     24     26     27      9     0.00   3.55640   3 ;     O3-    C7-    O2-    C4
    25     24     26     27      9   180.00   1.92464   1 ;     O3-    C7-    O2-    C4
    26     27     28     29      9     0.00   0.00000   0 ;     O2-    C4-    C5-    H8
    26     27     28     29      9     0.00   1.04600   1 ;     O2-    C4-    C5-    H8
    26     27     28     30      9     0.00   0.00000   0 ;     O2-    C4-    C5-    H9
    26     27     28     30      9     0.00   1.04600   1 ;     O2-    C4-    C5-    H9
    26     27     28     31      9     0.00   0.00000   0 ;     O2-    C4-    C5-   H10
    26     27     28     31      9     0.00   1.04600   1 ;     O2-    C4-    C5-   H10
    26     27     33     34      9     0.00   0.00000   0 ;     O2-    C4-    C6-   H11
    26     27     33     34      9     0.00   1.04600   1 ;     O2-    C4-    C6-   H11
    26     27     33     35      9     0.00   0.00000   0 ;     O2-    C4-    C6-   H12
    26     27     33     35      9     0.00   1.04600   1 ;     O2-    C4-    C6-   H12
    26     27     33     36      9     0.00   0.65084   3 ;     O2-    C4-    C6-    C7
    27     33     36     37      9     0.00   0.65084   3 ;     C4-    C6-    C7-    O3
    27     33     36     38      9     0.00   0.65084   3 ;     C4-    C6-    C7-    O2
    28     27     33     34      9     0.00   0.54392   3 ;     C5-    C4-    C6-   H11
    28     27     33     35      9     0.00   0.54392   3 ;     C5-    C4-    C6-   H12
    28     27     33     36      9     0.00   2.17568   3 ;     C5-    C4-    C6-    C7
    29     28     27     32      9     0.00   0.65084   3 ;     H8-    C5-    C4-    H7
    29     28     27     33      9     0.00   0.54392   3 ;     H8-    C5-    C4-    C6
    30     28     27     32      9     0.00   0.65084   3 ;     H9-    C5-    C4-    H7
    30     28     27     33      9     0.00   0.54392   3 ;     H9-    C5-    C4-    C6
    31     28     27     32      9     0.00   0.65084   3 ;    H10-    C5-    C4-    H7
    31     28     27     33      9     0.00   0.54392   3 ;    H10-    C5-    C4-    C6
    32     27     33     34      9     0.00   0.65084   3 ;     H7-    C4-    C6-   H11
    32     27     33     35      9     0.00   0.65084   3 ;     H7-    C4-    C6-   H12
    32     27     33     36      9     0.00   0.65084   3 ;     H7-    C4-    C6-    C7
    33     36     38     39      9     0.00   0.33472   2 ;     C6-    C7-    O2-    C4
    33     36     38     39      9     0.00   3.13800   3 ;     C6-    C7-    O2-    C4
    33     36     38     39      9   180.00   3.68192   1 ;     C6-    C7-    O2-    C4
    34     33     36     37      9     0.00   0.00000   0 ;    H11-    C6-    C7-    O3
    34     33     36     37      9     0.00   1.04600   1 ;    H11-    C6-    C7-    O3
    34     33     36     38      9     0.00   0.00000   0 ;    H11-    C6-    C7-    O2
    34     33     36     38      9     0.00   1.04600   1 ;    H11-    C6-    C7-    O2
    35     33     36     37      9     0.00   0.00000   0 ;    H12-    C6-    C7-    O3
    35     33     36     37      9     0.00   1.04600   1 ;    H12-    C6-    C7-    O3
    35     33     36     38      9     0.00   0.00000   0 ;    H12-    C6-    C7-    O2
    35     33     36     38      9     0.00   1.04600   1 ;    H12-    C6-    C7-    O2
    36     38     39     40      9     0.00   0.33472   2 ;     C7-    O2-    C4-    C5
    36     38     39     40      9     0.00   3.13800   3 ;     C7-    O2-    C4-    C5
    36     38     39     40      9   180.00   3.68192   1 ;     C7-    O2-    C4-    C5
    36     38     39     44      9     0.00   1.41001   3 ;     C7-    O2-    C4-    H7
    36     38     39     45      9     0.00   0.33472   2 ;     C7-    O2-    C4-    C6
    36     38     39     45      9     0.00   3.13800   3 ;     C7-    O2-    C4-    C6
    36     38     39     45      9   180.00   3.68192   1 ;     C7-    O2-    C4-    C6
    37     36     38     39      9     0.00   3.55640   2 ;     O3-    C7-    O2-    C4
    37     36     38     39      9     0.00   3.55640   3 ;     O3-    C7-    O2-    C4
    37     36     38     39      9   180.00   1.92464   1 ;     O3-    C7-    O2-    C4
    38     39     40     41      9     0.00   0.00000   0 ;     O2-    C4-    C5-    H8
    38     39     40     41      9     0.00   1.04600   1 ;     O2-    C4-    C5-    H8
    38     39     40     42      9     0.00   0.00000   0 ;     O2-    C4-    C5-    H9
    38     39     40     42      9     0.00   1.04600   1 ;     O2-    C4-    C5-    H9
    38     39     40     43      9     0.00   0.00000   0 ;     O2-    C4-    C5-   H10
    38     39     40     43      9     0.00   1.04600   1 ;     O2-    C4-    C5-   H10
    38     39     45     46      9     0.00   0.00000   0 ;     O2-    C4-    C6-   H11
    38     39     45     46      9     0.00   1.04600   1 ;     O2-    C4-    C6-   H11
    38     39     45     47      9     0.00   0.00000   0 ;     O2-    C4-    C6-   H12
    38     39     45     47      9     0.00   1.04600   1 ;     O2-    C4-    C6-   H12
    38     39     45     48      9     0.00   0.65084   3 ;     O2-    C4-    C6-    C7
    39     45     48     49      9     0.00   0.65084   3 ;     C4-    C6-    C7-    O3
    39     45     48     50      9     0.00   0.65084   3 ;     C4-    C6-    C7-    O2
    40     39     45     46      9     0.00   0.54392   3 ;     C5-    C4-    C6-   H11
    40     39     45     47      9     0.00   0.54392   3 ;     C5-    C4-    C6-   H12
    40     39     45     48      9     0.00   2.17568   3 ;     C5-    C4-    C6-    C7
    41     40     39     44      9     0.00   0.65084   3 ;     H8-    C5-    C4-    H7
    41     40     39     45      9     0.00   0.54392   3 ;     H8-    C5-    C4-    C6
    42     40     39     44      9     0.00   0.65084   3 ;     H9-    C5-    C4-    H7
    42     40     39     45      9     0.00   0.54392   3 ;     H9-    C5-    C4-    C6
    43     40     39     44      9     0.00   0.65084   3 ;    H10-    C5-    C4-    H7
    43     40     39     45      9     0.00   0.54392   3 ;    H10-    C5-    C4-    C6
    44     39     45     46      9     0.00   0.65084   3 ;     H7-    C4-    C6-   H11
    44     39     45     47      9     0.00   0.65084   3 ;     H7-    C4-    C6-   H12
    44     39     45     48      9     0.00   0.65084   3 ;     H7-    C4-    C6-    C7
    45     48     50     51      9     0.00   0.33472   2 ;     C6-    C7-    O2-    C4
    45     48     50     51      9     0.00   3.13800   3 ;     C6-    C7-    O2-    C4
    45     48     50     51      9   180.00   3.68192   1 ;     C6-    C7-    O2-    C4
    46     45     48     49      9     0.00   0.00000   0 ;    H11-    C6-    C7-    O3
    46     45     48     49      9     0.00   1.04600   1 ;    H11-    C6-    C7-    O3
    46     45     48     50      9     0.00   0.00000   0 ;    H11-    C6-    C7-    O2
    46     45     48     50      9     0.00   1.04600   1 ;    H11-    C6-    C7-    O2
    47     45     48     49      9     0.00   0.00000   0 ;    H12-    C6-    C7-    O3
    47     45     48     49      9     0.00   1.04600   1 ;    H12-    C6-    C7-    O3
    47     45     48     50      9     0.00   0.00000   0 ;    H12-    C6-    C7-    O2
    47     45     48     50      9     0.00   1.04600   1 ;    H12-    C6-    C7-    O2
    48     50     51     52      9     0.00   0.33472   2 ;     C7-    O2-    C4-    C5
    48     50     51     52      9     0.00   3.13800   3 ;     C7-    O2-    C4-    C5
    48     50     51     52      9   180.00   3.68192   1 ;     C7-    O2-    C4-    C5
    48     50     51     56      9     0.00   1.41001   3 ;     C7-    O2-    C4-    H7
    48     50     51     57      9     0.00   0.33472   2 ;     C7-    O2-    C4-    C6
    48     50     51     57      9     0.00   3.13800   3 ;     C7-    O2-    C4-    C6
    48     50     51     57      9   180.00   3.68192   1 ;     C7-    O2-    C4-    C6
    49     48     50     51      9     0.00   3.55640   2 ;     O3-    C7-    O2-    C4
    49     48     50     51      9     0.00   3.55640   3 ;     O3-    C7-    O2-    C4
    49     48     50     51      9   180.00   1.92464   1 ;     O3-    C7-    O2-    C4
    50     51     52     53      9     0.00   0.00000   0 ;     O2-    C4-    C5-    H8
    50     51     52     53      9     0.00   1.04600   1 ;     O2-    C4-    C5-    H8
    50     51     52     54      9     0.00   0.00000   0 ;     O2-    C4-    C5-    H9
    50     51     52     54      9     0.00   1.04600   1 ;     O2-    C4-    C5-    H9
    50     51     52     55      9     0.00   0.00000   0 ;     O2-    C4-    C5-   H10
    50     51     52     55      9     0.00   1.04600   1 ;     O2-    C4-    C5-   H10
    50     51     57     58      9     0.00   0.00000   0 ;     O2-    C4-    C6-   H11
    50     51     57     58      9     0.00   1.04600   1 ;     O2-    C4-    C6-   H11
    50     51     57     59      9     0.00   0.00000   0 ;     O2-    C4-    C6-   H12
    50     51     57     59      9     0.00   1.04600   1 ;     O2-    C4-    C6-   H12
    50     51     57     60      9     0.00   0.65084   3 ;     O2-    C4-    C6-    C7
    51     57     60     61      9     0.00   0.65084   3 ;     C4-    C6-    C7-    O3
    51     57     60     62      9     0.00   0.65084   3 ;     C4-    C6-    C7-    O2
    52     51     57     58      9     0.00   0.54392   3 ;     C5-    C4-    C6-   H11
    52     51     57     59      9     0.00   0.54392   3 ;     C5-    C4-    C6-   H12
    52     51     57     60      9     0.00   2.17568   3 ;     C5-    C4-    C6-    C7
    53     52     51     56      9     0.00   0.65084   3 ;     H8-    C5-    C4-    H7
    53     52     51     57      9     0.00   0.54392   3 ;     H8-    C5-    C4-    C6
    54     52     51     56      9     0.00   0.65084   3 ;     H9-    C5-    C4-    H7
    54     52     51     57      9     0.00   0.54392   3 ;     H9-    C5-    C4-    C6
    55     52     51     56      9     0.00   0.65084   3 ;    H10-    C5-    C4-    H7
    55     52     51     57      9     0.00   0.54392   3 ;    H10-    C5-    C4-    C6
    56     51     57     58      9     0.00   0.65084   3 ;     H7-    C4-    C6-   H11
    56     51     57     59      9     0.00   0.65084   3 ;     H7-    C4-    C6-   H12
    56     51     57     60      9     0.00   0.65084   3 ;     H7-    C4-    C6-    C7
    57     60     62     63      9     0.00   0.33472   2 ;     C6-    C7-    O2-    C4
    57     60     62     63      9     0.00   3.13800   3 ;     C6-    C7-    O2-    C4
    57     60     62     63      9   180.00   3.68192   1 ;     C6-    C7-    O2-    C4
    58     57     60     61      9     0.00   0.00000   0 ;    H11-    C6-    C7-    O3
    58     57     60     61      9     0.00   1.04600   1 ;    H11-    C6-    C7-    O3
    58     57     60     62      9     0.00   0.00000   0 ;    H11-    C6-    C7-    O2
    58     57     60     62      9     0.00   1.04600   1 ;    H11-    C6-    C7-    O2
    59     57     60     61      9     0.00   0.00000   0 ;    H12-    C6-    C7-    O3
    59     57     60     61      9     0.00   1.04600   1 ;    H12-    C6-    C7-    O3
    59     57     60     62      9     0.00   0.00000   0 ;    H12-    C6-    C7-    O2
    59     57     60     62      9     0.00   1.04600   1 ;    H12-    C6-    C7-    O2
    60     62     63     64      9     0.00   0.33472   2 ;     C7-    O2-    C4-    C5
    60     62     63     64      9     0.00   3.13800   3 ;     C7-    O2-    C4-    C5
    60     62     63     64      9   180.00   3.68192   1 ;     C7-    O2-    C4-    C5
    60     62     63     68      9     0.00   1.41001   3 ;     C7-    O2-    C4-    H7
    60     62     63     69      9     0.00   0.33472   2 ;     C7-    O2-    C4-    C6
    60     62     63     69      9     0.00   3.13800   3 ;     C7-    O2-    C4-    C6
    60     62     63     69      9   180.00   3.68192   1 ;     C7-    O2-    C4-    C6
    61     60     62     63      9     0.00   3.55640   2 ;     O3-    C7-    O2-    C4
    61     60     62     63      9     0.00   3.55640   3 ;     O3-    C7-    O2-    C4
    61     60     62     63      9   180.00   1.92464   1 ;     O3-    C7-    O2-    C4
    62     63     64     65      9     0.00   0.00000   0 ;     O2-    C4-    C5-    H8
    62     63     64     65      9     0.00   1.04600   1 ;     O2-    C4-    C5-    H8
    62     63     64     66      9     0.00   0.00000   0 ;     O2-    C4-    C5-    H9
    62     63     64     66      9     0.00   1.04600   1 ;     O2-    C4-    C5-    H9
    62     63     64     67      9     0.00   0.00000   0 ;     O2-    C4-    C5-   H10
    62     63     64     67      9     0.00   1.04600   1 ;     O2-    C4-    C5-   H10
    62     63     69     70      9     0.00   0.00000   0 ;     O2-    C4-    C6-   H11
    62     63     69     70      9     0.00   1.04600   1 ;     O2-    C4-    C6-   H11
    62     63     69     71      9     0.00   0.00000   0 ;     O2-    C4-    C6-   H12
    62     63     69     71      9     0.00   1.04600   1 ;     O2-    C4-    C6-   H12
    62     63     69     72      9     0.00   0.65084   3 ;     O2-    C4-    C6-    C7
    63     69     72     73      9     0.00   0.65084   3 ;     C4-    C6-    C7-    O3
    63     69     72     74      9     0.00   0.65084   3 ;     C4-    C6-    C7-    O2
    64     63     69     70      9     0.00   0.54392   3 ;     C5-    C4-    C6-   H11
    64     63     69     71      9     0.00   0.54392   3 ;     C5-    C4-    C6-   H12
    64     63     69     72      9     0.00   2.17568   3 ;     C5-    C4-    C6-    C7
    65     64     63     68      9     0.00   0.65084   3 ;     H8-    C5-    C4-    H7
    65     64     63     69      9     0.00   0.54392   3 ;     H8-    C5-    C4-    C6
    66     64     63     68      9     0.00   0.65084   3 ;     H9-    C5-    C4-    H7
    66     64     63     69      9     0.00   0.54392   3 ;     H9-    C5-    C4-    C6
    67     64     63     68      9     0.00   0.65084   3 ;    H10-    C5-    C4-    H7
    67     64     63     69      9     0.00   0.54392   3 ;    H10-    C5-    C4-    C6
    68     63     69     70      9     0.00   0.65084   3 ;     H7-    C4-    C6-   H11
    68     63     69     71      9     0.00   0.65084   3 ;     H7-    C4-    C6-   H12
    68     63     69     72      9     0.00   0.65084   3 ;     H7-    C4-    C6-    C7
    69     72     74     75      9     0.00   0.33472   2 ;     C6-    C7-    O2-    C4
    69     72     74     75      9     0.00   3.13800   3 ;     C6-    C7-    O2-    C4
    69     72     74     75      9   180.00   3.68192   1 ;     C6-    C7-    O2-    C4
    70     69     72     73      9     0.00   0.00000   0 ;    H11-    C6-    C7-    O3
    70     69     72     73      9     0.00   1.04600   1 ;    H11-    C6-    C7-    O3
    70     69     72     74      9     0.00   0.00000   0 ;    H11-    C6-    C7-    O2
    70     69     72     74      9     0.00   1.04600   1 ;    H11-    C6-    C7-    O2
    71     69     72     73      9     0.00   0.00000   0 ;    H12-    C6-    C7-    O3
    71     69     72     73      9     0.00   1.04600   1 ;    H12-    C6-    C7-    O3
    71     69     72     74      9     0.00   0.00000   0 ;    H12-    C6-    C7-    O2
    71     69     72     74      9     0.00   1.04600   1 ;    H12-    C6-    C7-    O2
    72     74     75     76      9     0.00   0.33472   2 ;     C7-    O2-    C4-    C5
    72     74     75     76      9     0.00   3.13800   3 ;     C7-    O2-    C4-    C5
    72     74     75     76      9   180.00   3.68192   1 ;     C7-    O2-    C4-    C5
    72     74     75     80      9     0.00   1.41001   3 ;     C7-    O2-    C4-    H7
    72     74     75     81      9     0.00   0.33472   2 ;     C7-    O2-    C4-    C6
    72     74     75     81      9     0.00   3.13800   3 ;     C7-    O2-    C4-    C6
    72     74     75     81      9   180.00   3.68192   1 ;     C7-    O2-    C4-    C6
    73     72     74     75      9     0.00   3.55640   2 ;     O3-    C7-    O2-    C4
    73     72     74     75      9     0.00   3.55640   3 ;     O3-    C7-    O2-    C4
    73     72     74     75      9   180.00   1.92464   1 ;     O3-    C7-    O2-    C4
    74     75     76     77      9     0.00   0.00000   0 ;     O2-    C4-    C5-    H8
    74     75     76     77      9     0.00   1.04600   1 ;     O2-    C4-    C5-    H8
    74     75     76     78      9     0.00   0.00000   0 ;     O2-    C4-    C5-    H9
    74     75     76     78      9     0.00   1.04600   1 ;     O2-    C4-    C5-    H9
    74     75     76     79      9     0.00   0.00000   0 ;     O2-    C4-    C5-   H10
    74     75     76     79      9     0.00   1.04600   1 ;     O2-    C4-    C5-   H10
    74     75     81     82      9     0.00   0.00000   0 ;     O2-    C4-    C6-   H11
    74     75     81     82      9     0.00   1.04600   1 ;     O2-    C4-    C6-   H11
    74     75     81     83      9     0.00   0.00000   0 ;     O2-    C4-    C6-   H12
    74     75     81     83      9     0.00   1.04600   1 ;     O2-    C4-    C6-   H12
    74     75     81     84      9     0.00   0.65084   3 ;     O2-    C4-    C6-    C7
    75     81     84     85      9     0.00   0.65084   3 ;     C4-    C6-    C7-    O3
    75     81     84     86      9     0.00   0.65084   3 ;     C4-    C6-    C7-    O2
    76     75     81     82      9     0.00   0.54392   3 ;     C5-    C4-    C6-   H11
    76     75     81     83      9     0.00   0.54392   3 ;     C5-    C4-    C6-   H12
    76     75     81     84      9     0.00   2.17568   3 ;     C5-    C4-    C6-    C7
    77     76     75     80      9     0.00   0.65084   3 ;     H8-    C5-    C4-    H7
    77     76     75     81      9     0.00   0.54392   3 ;     H8-    C5-    C4-    C6
    78     76     75     80      9     0.00   0.65084   3 ;     H9-    C5-    C4-    H7
    78     76     75     81      9     0.00   0.54392   3 ;     H9-    C5-    C4-    C6
    79     76     75     80      9     0.00   0.65084   3 ;    H10-    C5-    C4-    H7
    79     76     75     81      9     0.00   0.54392   3 ;    H10-    C5-    C4-    C6
    80     75     81     82      9     0.00   0.65084   3 ;     H7-    C4-    C6-   H11
    80     75     81     83      9     0.00   0.65084   3 ;     H7-    C4-    C6-   H12
    80     75     81     84      9     0.00   0.65084   3 ;     H7-    C4-    C6-    C7
    81     84     86     87      9     0.00   0.33472   2 ;     C6-    C7-    O2-    C4
    81     84     86     87      9     0.00   3.13800   3 ;     C6-    C7-    O2-    C4
    81     84     86     87      9   180.00   3.68192   1 ;     C6-    C7-    O2-    C4
    82     81     84     85      9     0.00   0.00000   0 ;    H11-    C6-    C7-    O3
    82     81     84     85      9     0.00   1.04600   1 ;    H11-    C6-    C7-    O3
    82     81     84     86      9     0.00   0.00000   0 ;    H11-    C6-    C7-    O2
    82     81     84     86      9     0.00   1.04600   1 ;    H11-    C6-    C7-    O2
    83     81     84     85      9     0.00   0.00000   0 ;    H12-    C6-    C7-    O3
    83     81     84     85      9     0.00   1.04600   1 ;    H12-    C6-    C7-    O3
    83     81     84     86      9     0.00   0.00000   0 ;    H12-    C6-    C7-    O2
    83     81     84     86      9     0.00   1.04600   1 ;    H12-    C6-    C7-    O2
    84     86     87     88      9     0.00   0.33472   2 ;     C7-    O2-    C4-    C5
    84     86     87     88      9     0.00   3.13800   3 ;     C7-    O2-    C4-    C5
    84     86     87     88      9   180.00   3.68192   1 ;     C7-    O2-    C4-    C5
    84     86     87     92      9     0.00   1.41001   3 ;     C7-    O2-    C4-    H7
    84     86     87     93      9     0.00   0.33472   2 ;     C7-    O2-    C4-    C6
    84     86     87     93      9     0.00   3.13800   3 ;     C7-    O2-    C4-    C6
    84     86     87     93      9   180.00   3.68192   1 ;     C7-    O2-    C4-    C6
    85     84     86     87      9     0.00   3.55640   2 ;     O3-    C7-    O2-    C4
    85     84     86     87      9     0.00   3.55640   3 ;     O3-    C7-    O2-    C4
    85     84     86     87      9   180.00   1.92464   1 ;     O3-    C7-    O2-    C4
    86     87     88     89      9     0.00   0.00000   0 ;     O2-    C4-    C5-    H8
    86     87     88     89      9     0.00   1.04600   1 ;     O2-    C4-    C5-    H8
    86     87     88     90      9     0.00   0.00000   0 ;     O2-    C4-    C5-    H9
    86     87     88     90      9     0.00   1.04600   1 ;     O2-    C4-    C5-    H9
    86     87     88     91      9     0.00   0.00000   0 ;     O2-    C4-    C5-   H10
    86     87     88     91      9     0.00   1.04600   1 ;     O2-    C4-    C5-   H10
    86     87     93     94      9     0.00   0.00000   0 ;     O2-    C4-    C6-   H11
    86     87     93     94      9     0.00   1.04600   1 ;     O2-    C4-    C6-   H11
    86     87     93     95      9     0.00   0.00000   0 ;     O2-    C4-    C6-   H12
    86     87     93     95      9     0.00   1.04600   1 ;     O2-    C4-    C6-   H12
    86     87     93     96      9     0.00   0.65084   3 ;     O2-    C4-    C6-    C7
    87     93     96     97      9     0.00   0.65084   3 ;     C4-    C6-    C7-    O3
    87     93     96     98      9     0.00   0.65084   3 ;     C4-    C6-    C7-    O2
    88     87     93     94      9     0.00   0.54392   3 ;     C5-    C4-    C6-   H11
    88     87     93     95      9     0.00   0.54392   3 ;     C5-    C4-    C6-   H12
    88     87     93     96      9     0.00   2.17568   3 ;     C5-    C4-    C6-    C7
    89     88     87     92      9     0.00   0.65084   3 ;     H8-    C5-    C4-    H7
    89     88     87     93      9     0.00   0.54392   3 ;     H8-    C5-    C4-    C6
    90     88     87     92      9     0.00   0.65084   3 ;     H9-    C5-    C4-    H7
    90     88     87     93      9     0.00   0.54392   3 ;     H9-    C5-    C4-    C6
    91     88     87     92      9     0.00   0.65084   3 ;    H10-    C5-    C4-    H7
    91     88     87     93      9     0.00   0.54392   3 ;    H10-    C5-    C4-    C6
    92     87     93     94      9     0.00   0.65084   3 ;     H7-    C4-    C6-   H11
    92     87     93     95      9     0.00   0.65084   3 ;     H7-    C4-    C6-   H12
    92     87     93     96      9     0.00   0.65084   3 ;     H7-    C4-    C6-    C7
    93     96     98     99      9     0.00   0.33472   2 ;     C6-    C7-    O2-    C4
    93     96     98     99      9     0.00   3.13800   3 ;     C6-    C7-    O2-    C4
    93     96     98     99      9   180.00   3.68192   1 ;     C6-    C7-    O2-    C4
    94     93     96     97      9     0.00   0.00000   0 ;    H11-    C6-    C7-    O3
    94     93     96     97      9     0.00   1.04600   1 ;    H11-    C6-    C7-    O3
    94     93     96     98      9     0.00   0.00000   0 ;    H11-    C6-    C7-    O2
    94     93     96     98      9     0.00   1.04600   1 ;    H11-    C6-    C7-    O2
    95     93     96     97      9     0.00   0.00000   0 ;    H12-    C6-    C7-    O3
    95     93     96     97      9     0.00   1.04600   1 ;    H12-    C6-    C7-    O3
    95     93     96     98      9     0.00   0.00000   0 ;    H12-    C6-    C7-    O2
    95     93     96     98      9     0.00   1.04600   1 ;    H12-    C6-    C7-    O2
    96     98     99    100      9     0.00   0.33472   2 ;     C7-    O2-    C4-    C5
    96     98     99    100      9     0.00   3.13800   3 ;     C7-    O2-    C4-    C5
    96     98     99    100      9   180.00   3.68192   1 ;     C7-    O2-    C4-    C5
    96     98     99    104      9     0.00   1.41001   3 ;     C7-    O2-    C4-    H7
    96     98     99    105      9     0.00   0.33472   2 ;     C7-    O2-    C4-    C6
    96     98     99    105      9     0.00   3.13800   3 ;     C7-    O2-    C4-    C6
    96     98     99    105      9   180.00   3.68192   1 ;     C7-    O2-    C4-    C6
    97     96     98     99      9     0.00   3.55640   2 ;     O3-    C7-    O2-    C4
    97     96     98     99      9     0.00   3.55640   3 ;     O3-    C7-    O2-    C4
    97     96     98     99      9   180.00   1.92464   1 ;     O3-    C7-    O2-    C4
    98     99    100    101      9     0.00   0.00000   0 ;     O2-    C4-    C5-    H8
    98     99    100    101      9     0.00   1.04600   1 ;     O2-    C4-    C5-    H8
    98     99    100    102      9     0.00   0.00000   0 ;     O2-    C4-    C5-    H9
    98     99    100    102      9     0.00   1.04600   1 ;     O2-    C4-    C5-    H9
    98     99    100    103      9     0.00   0.00000   0 ;     O2-    C4-    C5-   H10
    98     99    100    103      9     0.00   1.04600   1 ;     O2-    C4-    C5-   H10
    98     99    105    106      9     0.00   0.00000   0 ;     O2-    C4-    C6-   H11
    98     99    105    106      9     0.00   1.04600   1 ;     O2-    C4-    C6-   H11
    98     99    105    107      9     0.00   0.00000   0 ;     O2-    C4-    C6-   H12
    98     99    105    107      9     0.00   1.04600   1 ;     O2-    C4-    C6-   H12
    98     99    105    108      9     0.00   0.65084   3 ;     O2-    C4-    C6-    C7
    99    105    108    109      9     0.00   0.65084   3 ;     C4-    C6-    C7-    O3
    99    105    108    110      9     0.00   0.65084   3 ;     C4-    C6-    C7-    O4
   100     99    105    106      9     0.00   0.54392   3 ;     C5-    C4-    C6-   H11
   100     99    105    107      9     0.00   0.54392   3 ;     C5-    C4-    C6-   H12
   100     99    105    108      9     0.00   2.17568   3 ;     C5-    C4-    C6-    C7
   101    100     99    104      9     0.00   0.65084   3 ;     H8-    C5-    C4-    H7
   101    100     99    105      9     0.00   0.54392   3 ;     H8-    C5-    C4-    C6
   102    100     99    104      9     0.00   0.65084   3 ;     H9-    C5-    C4-    H7
   102    100     99    105      9     0.00   0.54392   3 ;     H9-    C5-    C4-    C6
   103    100     99    104      9     0.00   0.65084   3 ;    H10-    C5-    C4-    H7
   103    100     99    105      9     0.00   0.54392   3 ;    H10-    C5-    C4-    C6
   104     99    105    106      9     0.00   0.65084   3 ;     H7-    C4-    C6-   H11
   104     99    105    107      9     0.00   0.65084   3 ;     H7-    C4-    C6-   H12
   104     99    105    108      9     0.00   0.65084   3 ;     H7-    C4-    C6-    C7
   105    108    110    111      9     0.00   0.33472   2 ;     C6-    C7-    O4-    C8
   105    108    110    111      9     0.00   3.13800   3 ;     C6-    C7-    O4-    C8
   105    108    110    111      9   180.00   3.68192   1 ;     C6-    C7-    O4-    C8
   106    105    108    109      9     0.00   0.00000   0 ;    H11-    C6-    C7-    O3
   106    105    108    109      9     0.00   1.04600   1 ;    H11-    C6-    C7-    O3
   106    105    108    110      9     0.00   0.00000   0 ;    H11-    C6-    C7-    O4
   106    105    108    110      9     0.00   1.04600   1 ;    H11-    C6-    C7-    O4
   107    105    108    109      9     0.00   0.00000   0 ;    H12-    C6-    C7-    O3
   107    105    108    109      9     0.00   1.04600   1 ;    H12-    C6-    C7-    O3
   107    105    108    110      9     0.00   0.00000   0 ;    H12-    C6-    C7-    O4
   107    105    108    110      9     0.00   1.04600   1 ;    H12-    C6-    C7-    O4
   108    110    111    112      9     0.00   0.33472   2 ;     C7-    O4-    C8-    C9
   108    110    111    112      9     0.00   3.13800   3 ;     C7-    O4-    C8-    C9
   108    110    111    112      9   180.00   3.68192   1 ;     C7-    O4-    C8-    C9
   108    110    111    116      9     0.00   1.41001   3 ;     C7-    O4-    C8-   H13
   108    110    111    117      9     0.00   0.33472   2 ;     C7-    O4-    C8-   C10
   108    110    111    117      9     0.00   3.13800   3 ;     C7-    O4-    C8-   C10
   108    110    111    117      9   180.00   3.68192   1 ;     C7-    O4-    C8-   C10
   109    108    110    111      9     0.00   3.55640   2 ;     O3-    C7-    O4-    C8
   109    108    110    111      9     0.00   3.55640   3 ;     O3-    C7-    O4-    C8
   109    108    110    111      9   180.00   1.92464   1 ;     O3-    C7-    O4-    C8
   110    111    112    113      9     0.00   0.00000   0 ;     O4-    C8-    C9-   H14
   110    111    112    113      9     0.00   1.04600   1 ;     O4-    C8-    C9-   H14
   110    111    112    114      9     0.00   0.00000   0 ;     O4-    C8-    C9-   H15
   110    111    112    114      9     0.00   1.04600   1 ;     O4-    C8-    C9-   H15
   110    111    112    115      9     0.00   0.00000   0 ;     O4-    C8-    C9-   H16
   110    111    112    115      9     0.00   1.04600   1 ;     O4-    C8-    C9-   H16
   110    111    117    118      9     0.00   0.00000   0 ;     O4-    C8-   C10-   H17
   110    111    117    118      9     0.00   1.04600   1 ;     O4-    C8-   C10-   H17
   110    111    117    119      9     0.00   0.00000   0 ;     O4-    C8-   C10-   H18
   110    111    117    119      9     0.00   1.04600   1 ;     O4-    C8-   C10-   H18
   110    111    117    120      9     0.00   0.65084   3 ;     O4-    C8-   C10-   C11
   111    117    120    121      9     0.00   0.65084   3 ;     C8-   C10-   C11-    O5
   112    111    117    118      9     0.00   0.54392   3 ;     C9-    C8-   C10-   H17
   112    111    117    119      9     0.00   0.54392   3 ;     C9-    C8-   C10-   H18
   112    111    117    120      9     0.00   2.17568   3 ;     C9-    C8-   C10-   C11
   113    112    111    116      9     0.00   0.65084   3 ;    H14-    C9-    C8-   H13
   113    112    111    117      9     0.00   0.54392   3 ;    H14-    C9-    C8-   C10
   114    112    111    116      9     0.00   0.65084   3 ;    H15-    C9-    C8-   H13
   114    112    111    117      9     0.00   0.54392   3 ;    H15-    C9-    C8-   C10
   115    112    111    116      9     0.00   0.65084   3 ;    H16-    C9-    C8-   H13
   115    112    111    117      9     0.00   0.54392   3 ;    H16-    C9-    C8-   C10
   116    111    117    118      9     0.00   0.65084   3 ;    H13-    C8-   C10-   H17
   116    111    117    119      9     0.00   0.65084   3 ;    H13-    C8-   C10-   H18
   116    111    117    120      9     0.00   0.65084   3 ;    H13-    C8-   C10-   C11
   117    120    121    122      9     0.00   1.60387   3 ;    C10-   C11-    O5-    O6
   118    117    120    121      9     0.00   0.00000   0 ;    H17-   C10-   C11-    O5
   118    117    120    121      9     0.00   1.04600   1 ;    H17-   C10-   C11-    O5
   119    117    120    121      9     0.00   0.00000   0 ;    H18-   C10-   C11-    O5
   119    117    120    121      9     0.00   1.04600   1 ;    H18-   C10-   C11-    O5
   120    121    122    123      9     0.00   4.14216   2 ;    C11-    O5-    O6-   H19

[ system ]
 P3HB_10

[ molecules ]
; Compound        nmols
 P3HB_10          1     


