; GROMACS NPT equilibration, stage 6.6
; Length: 200 ps (100000 steps x 0.002 ps).
; Conditions: NPT at 300 K and 1 bar, V-rescale thermostat,
; C-rescale pressure coupling for final pre-production equilibration.
integrator              = md
nsteps                  = 100000
dt                      = 0.002
continuation            = yes
constraint_algorithm    = lincs
constraints             = h-bonds
cutoff-scheme           = Verlet
nstlist                 = 20
rlist                   = 1.0
coulombtype             = PME
rcoulomb                = 1.0
vdwtype                 = Cut-off
rvdw                    = 1.0
tcoupl                  = V-rescale
tc-grps                 = System
tau_t                   = 1.0
ref_t                   = 300
pcoupl                  = C-rescale
pcoupltype              = isotropic
tau_p                   = 5.0
ref_p                   = 1.0
compressibility         = 4.5e-5
pbc                     = xyz
gen_vel                 = no
nstenergy               = 1000
nstlog                  = 1000
