AAB
   123
   3.5400032   1.4197788   0.0000019   4.1828735   0.8368515   1.1328049
   3.4568457   0.4728617   1.6848187   2.9480509   0.6459122  -0.5019333
   4.6089572   1.9367198  -0.9489498   5.2199324   2.7066204  -0.4639978
   4.1640032   2.3677093  -1.8518833   5.2847984   1.1278577  -1.2418948
   2.6681182   2.5697413   0.4749704   2.3129933   3.0979560  -0.4123511
   3.2642877   3.2658931   1.0741195   1.5318690   2.0476869   1.3391446
   1.4418389   0.8669463   1.6680628   0.3100118   2.3039814   0.6473618
  -0.8499608   1.8604531   1.3522945  -0.8908668   2.5982511   2.6908840
  -1.7823295   2.3311179   3.2698056  -0.8926832   3.6838236   2.5400692
  -0.0206752   2.3326011   3.3001636  -0.8467698   0.7867753   1.5459091
  -2.1014878   2.1682092   0.5540323  -2.0148928   3.2445887   0.3985026
  -3.0045139   1.9471709   1.1344648  -2.2445538   1.4299951  -0.7703926
  -1.5906169   0.4483176  -1.1083349  -1.9630678   2.3599188  -1.8159512
  -2.0612588   1.7961214  -3.1242611  -3.4917082   1.2872085  -3.3049905
  -3.6473071   0.8736402  -4.3079693  -4.2171355   2.0941402  -3.1506129
  -3.7050283   0.4854922  -2.5903084  -1.3727508   0.9648713  -3.2831981
  -1.7488725   2.8439030  -4.1744156  -2.4661034   3.6300345  -3.9338784
  -1.9401869   2.4611364  -5.1834272  -0.3234833   3.3803654  -4.1760647
   0.6276970   2.8656320  -3.5965523  -0.3541973   4.6902855  -3.6100687
   0.9274267   5.3171622  -3.5496578   1.4611277   5.4226861  -4.9785976
   2.4311766   5.9319222  -5.0085929   0.7635404   5.9761524  -5.6175522
   1.6085656   4.4253252  -5.4058661   1.6472054   4.7591814  -2.9489441
   0.8096364   6.6995076  -2.9385093   0.0715636   7.1742412  -3.5867049
   1.7609897   7.2403588  -2.9986990   0.3738797   6.7475325  -1.4799693
   0.3672340   5.7914958  -0.7108928  -0.9878565   7.1740815  -1.4497067
  -1.5296129   7.2640263  -0.1315285  -0.6904954   8.2771183   0.6478093
  -1.0776197   8.4234409   1.6626692  -0.6798383   9.2491274   0.1415478
   0.3413312   7.9238111   0.7454462  -1.5124113   6.3127848   0.4024422
  -2.9738774   7.7216812  -0.1854559  -2.8966205   8.6585411  -0.7391758
  -3.3649394   7.9144632   0.8200895  -3.9508164   6.7646262  -0.8556535
  -3.7260266   5.5852260  -1.1086630  -4.2656854   7.2987619  -2.1412436
  -5.1808288   6.4943959  -2.8860199  -6.4744386   6.3921124  -2.0773464
  -7.2381091   5.8159434  -2.6121853  -6.8825421   7.3865692  -1.8635167
  -6.2915147   5.8789597  -1.1274842  -4.8071054   5.4869482  -3.0748607
  -5.4627597   7.1278767  -4.2341568  -5.8146881   8.1210605  -3.9512905
  -6.2555337   6.5891602  -4.7656735  -4.2798434   7.2140203  -5.1895715
  -3.2249701   6.5992104  -5.0679974  -3.8415161   8.5721437  -5.2131338
  -2.7271855   8.7983310  -6.0770149  -3.1490375   8.4041189  -7.4928111
  -2.3476975   8.5896478  -8.2171378  -4.0342475   8.9676427  -7.8091339
  -3.3819444   7.3351404  -7.5382461  -1.8476697   8.2151674  -5.8001516
  -2.3242005  10.2594539  -6.0457277  -3.2545667  10.7594230  -6.3190968
  -1.5528313  10.4725625  -6.7945870  -1.7922496  10.7748764  -4.7149772
  -1.4269823  10.0718004  -3.7780711  -2.8165216  11.5706072  -4.1192721
  -2.4489868  12.1222839  -2.8544579  -1.2192845  13.0045794  -3.0717777
  -0.9052170  13.4921754  -2.1418165  -1.4223916  13.7835121  -3.8155703
  -0.3737679  12.4022385  -3.4200766  -2.2051685  11.3611399  -2.1118319
  -3.5863796  12.9507579  -2.2903442  -3.7682876  13.6666366  -3.0932814
  -3.2766386  13.4803898  -1.3821776  -4.8549790  12.1860383  -1.9362420
  -4.9391622  10.9670911  -1.8239478  -5.8251550  12.4681980  -2.9443737
  -7.0748950  11.8096653  -2.7354034  -7.6285378  12.2793118  -1.3897613
  -8.6105273  11.8384817  -1.1834083  -7.7310299  13.3702810  -1.3674562
  -6.9624339  11.9752327  -0.5755950  -6.9859913  10.7224746  -2.7155626
  -8.0469811  12.1596922  -3.8448113  -8.0635682  13.2496128  -3.7992142
  -9.0465842  11.7627917  -3.6339095  -7.6707884  11.6722773  -5.2378062
  -6.8172882  10.8263351  -5.4856935  -7.2082238  12.8002990  -5.9799561
  -6.8187744  12.4844819  -7.3159643  -8.0517726  11.9164020  -7.9861856
  -7.8780191  11.7100454  -9.0453719  -8.8927266  12.6013502  -7.8681882
  -8.3176532  10.9596486  -7.5153020  -6.0143588  11.7608723  -7.3820004
  -6.3424553  13.7512050  -8.0210945  -7.1308972  14.5033358  -7.9236542
  -6.1354677  13.5530530  -9.0769013  -5.0877045  14.3129619  -7.3656872
  -4.5198139  13.8350029  -6.3962047  -3.4575320  14.5569144  -5.9803911
  -3.2670956  15.3636196  -6.4918954
