%VERSION  VERSION_STAMP = V0001.000  DATE = 06/23/26  12:40:53                  
%FLAG TITLE                                                                     
%FORMAT(20a4)                                                                   
AAB                                                                             
%FLAG POINTERS                                                                  
%FORMAT(10I8)                                                                   
     123       6      62      60     144      77     295     148       0       0
     632      10      60      77     148       7      13      19       6       0
       0       0       0       0       0       0       0       0      14       0
       0
%FLAG ATOM_NAME                                                                 
%FORMAT(20a4)                                                                   
C   O   H   H1  C1  H2  H3  H4  C2  H5  H6  C3  O1  O2  C4  C5  H8  H9  H10 H7  
C6  H11 H12 C7  O3  O2  C4  C5  H8  H9  H10 H7  C6  H11 H12 C7  O3  O2  C4  C5  
H8  H9  H10 H7  C6  H11 H12 C7  O3  O2  C4  C5  H8  H9  H10 H7  C6  H11 H12 C7  
O3  O2  C4  C5  H8  H9  H10 H7  C6  H11 H12 C7  O3  O2  C4  C5  H8  H9  H10 H7  
C6  H11 H12 C7  O3  O2  C4  C5  H8  H9  H10 H7  C6  H11 H12 C7  O3  O2  C4  C5  
H8  H9  H10 H7  C6  H11 H12 C7  O3  O4  C8  C9  H14 H15 H16 H13 C10 H17 H18 C11 
O5  O6  H19 
%FLAG CHARGE                                                                    
%FORMAT(5E16.8)                                                                 
  3.12760268E+00 -1.29038484E+01  7.90906131E+00  8.18363493E-01 -1.83431138E+00
  8.24067073E-01  8.24067073E-01  8.24067073E-01 -3.22886400E+00  1.69332545E+00
  1.69332545E+00  1.02251703E+01 -9.97204434E+00 -8.35257387E+00  3.26461616E+00
 -2.02613754E+00  9.95958029E-01  9.95958029E-01  9.95958029E-01  1.36009425E+00
 -2.70637600E+00  1.97916045E+00  1.97916045E+00  1.09063017E+01 -9.39210142E+00
 -8.35257387E+00  3.26461616E+00 -2.02613754E+00  9.95958029E-01  9.95958029E-01
  9.95958029E-01  1.36009425E+00 -2.70637600E+00  1.97916045E+00  1.97916045E+00
  1.09063017E+01 -9.39210142E+00 -8.35257387E+00  3.26461616E+00 -2.02613754E+00
  9.95958029E-01  9.95958029E-01  9.95958029E-01  1.36009425E+00 -2.70637600E+00
  1.97916045E+00  1.97916045E+00  1.09063017E+01 -9.39210142E+00 -8.35257387E+00
  3.26461616E+00 -2.02613754E+00  9.95958029E-01  9.95958029E-01  9.95958029E-01
  1.36009425E+00 -2.70637600E+00  1.97916045E+00  1.97916045E+00  1.09063017E+01
 -9.39210142E+00 -8.35257387E+00  3.26461616E+00 -2.02613754E+00  9.95958029E-01
  9.95958029E-01  9.95958029E-01  1.36009425E+00 -2.70637600E+00  1.97916045E+00
  1.97916045E+00  1.09063017E+01 -9.39210142E+00 -8.35257387E+00  3.26461616E+00
 -2.02613754E+00  9.95958029E-01  9.95958029E-01  9.95958029E-01  1.36009425E+00
 -2.70637600E+00  1.97916045E+00  1.97916045E+00  1.09063017E+01 -9.39210142E+00
 -8.35257387E+00  3.26461616E+00 -2.02613754E+00  9.95958029E-01  9.95958029E-01
  9.95958029E-01  1.36009425E+00 -2.70637600E+00  1.97916045E+00  1.97916045E+00
  1.09063017E+01 -9.39210142E+00 -8.35257387E+00  3.26461616E+00 -2.02613754E+00
  9.95958029E-01  9.95958029E-01  9.95958029E-01  1.36009425E+00 -2.70637600E+00
  1.97916045E+00  1.97916045E+00  1.09063017E+01 -9.39210142E+00 -7.88263898E+00
  3.41589769E+00 -1.92052109E+00  1.06072008E+00  1.06072008E+00  1.06072008E+00
  1.46942805E+00 -2.59988487E+00  1.78553029E+00  1.78553029E+00  1.12458013E+01
 -8.81611274E+00 -1.06311996E+01  8.96599116E+00
%FLAG ATOMIC_NUMBER                                                             
%FORMAT(10I8)                                                                   
       6       8       1       1       6       1       1       1       6       1
       1       6       8       8       6       6       1       1       1       1
       6       1       1       6       8       8       6       6       1       1
       1       1       6       1       1       6       8       8       6       6
       1       1       1       1       6       1       1       6       8       8
       6       6       1       1       1       1       6       1       1       6
       8       8       6       6       1       1       1       1       6       1
       1       6       8       8       6       6       1       1       1       1
       6       1       1       6       8       8       6       6       1       1
       1       1       6       1       1       6       8       8       6       6
       1       1       1       1       6       1       1       6       8       8
       6       6       1       1       1       1       6       1       1       6
       8       8       1
%FLAG MASS                                                                      
%FORMAT(5E16.8)                                                                 
  1.20100000E+01  1.60000000E+01  1.00800000E+00  1.00800000E+00  1.20100000E+01
  1.00800000E+00  1.00800000E+00  1.00800000E+00  1.20100000E+01  1.00800000E+00
  1.00800000E+00  1.20100000E+01  1.60000000E+01  1.60000000E+01  1.20100000E+01
  1.20100000E+01  1.00800000E+00  1.00800000E+00  1.00800000E+00  1.00800000E+00
  1.20100000E+01  1.00800000E+00  1.00800000E+00  1.20100000E+01  1.60000000E+01
  1.60000000E+01  1.20100000E+01  1.20100000E+01  1.00800000E+00  1.00800000E+00
  1.00800000E+00  1.00800000E+00  1.20100000E+01  1.00800000E+00  1.00800000E+00
  1.20100000E+01  1.60000000E+01  1.60000000E+01  1.20100000E+01  1.20100000E+01
  1.00800000E+00  1.00800000E+00  1.00800000E+00  1.00800000E+00  1.20100000E+01
  1.00800000E+00  1.00800000E+00  1.20100000E+01  1.60000000E+01  1.60000000E+01
  1.20100000E+01  1.20100000E+01  1.00800000E+00  1.00800000E+00  1.00800000E+00
  1.00800000E+00  1.20100000E+01  1.00800000E+00  1.00800000E+00  1.20100000E+01
  1.60000000E+01  1.60000000E+01  1.20100000E+01  1.20100000E+01  1.00800000E+00
  1.00800000E+00  1.00800000E+00  1.00800000E+00  1.20100000E+01  1.00800000E+00
  1.00800000E+00  1.20100000E+01  1.60000000E+01  1.60000000E+01  1.20100000E+01
  1.20100000E+01  1.00800000E+00  1.00800000E+00  1.00800000E+00  1.00800000E+00
  1.20100000E+01  1.00800000E+00  1.00800000E+00  1.20100000E+01  1.60000000E+01
  1.60000000E+01  1.20100000E+01  1.20100000E+01  1.00800000E+00  1.00800000E+00
  1.00800000E+00  1.00800000E+00  1.20100000E+01  1.00800000E+00  1.00800000E+00
  1.20100000E+01  1.60000000E+01  1.60000000E+01  1.20100000E+01  1.20100000E+01
  1.00800000E+00  1.00800000E+00  1.00800000E+00  1.00800000E+00  1.20100000E+01
  1.00800000E+00  1.00800000E+00  1.20100000E+01  1.60000000E+01  1.60000000E+01
  1.20100000E+01  1.20100000E+01  1.00800000E+00  1.00800000E+00  1.00800000E+00
  1.00800000E+00  1.20100000E+01  1.00800000E+00  1.00800000E+00  1.20100000E+01
  1.60000000E+01  1.60000000E+01  1.00800000E+00
%FLAG ATOM_TYPE_INDEX                                                           
%FORMAT(10I8)                                                                   
       1       2       3       4       1       5       5       5       1       5
       5       1       6       6       1       1       5       5       5       4
       1       5       5       1       6       6       1       1       5       5
       5       4       1       5       5       1       6       6       1       1
       5       5       5       4       1       5       5       1       6       6
       1       1       5       5       5       4       1       5       5       1
       6       6       1       1       5       5       5       4       1       5
       5       1       6       6       1       1       5       5       5       4
       1       5       5       1       6       6       1       1       5       5
       5       4       1       5       5       1       6       6       1       1
       5       5       5       4       1       5       5       1       6       6
       1       1       5       5       5       4       1       5       5       1
       6       2       3
%FLAG NUMBER_EXCLUDED_ATOMS                                                     
%FORMAT(10I8)                                                                   
      11       7       2       5       9       6       5       4       6       4
       3       6       2      10      11       8       4       3       2       4
       6       4       3       6       2      10      11       8       4       3
       2       4       6       4       3       6       2      10      11       8
       4       3       2       4       6       4       3       6       2      10
      11       8       4       3       2       4       6       4       3       6
       2      10      11       8       4       3       2       4       6       4
       3       6       2      10      11       8       4       3       2       4
       6       4       3       6       2      10      11       8       4       3
       2       4       6       4       3       6       2      10      11       8
       4       3       2       4       6       4       3       6       2      10
      10       8       4       3       2       4       5       3       2       3
       2       1       1
%FLAG NONBONDED_PARM_INDEX                                                      
%FORMAT(10I8)                                                                   
       1       2       4       7      11      16       2       3       5       8
      12      17       4       5       6       9      13      18       7       8
       9      10      14      19      11      12      13      14      15      20
      16      17      18      19      20      21
%FLAG RESIDUE_LABEL                                                             
%FORMAT(20a4)                                                                   
AAB AAC AAC AAC AAC AAC AAC AAC AAC AAD 
%FLAG RESIDUE_POINTER                                                           
%FORMAT(10I8)                                                                   
       1      14      26      38      50      62      74      86      98     110
%FLAG BOND_FORCE_CONSTANT                                                       
%FORMAT(5E16.8)                                                                 
  2.82270000E+02  3.45250000E+02  2.28890000E+02  5.35510000E+02  2.85150000E+02
  3.44220000E+02  1.45500000E+02
%FLAG BOND_EQUIL_VALUE                                                          
%FORMAT(5E16.8)                                                                 
  1.42730000E+00  1.09620000E+00  1.53540000E+00  9.72500000E-01  1.42420000E+00
  1.09690000E+00  1.45650000E+00
%FLAG ANGLE_FORCE_CONSTANT                                                      
%FORMAT(5E16.8)                                                                 
  9.84400000E+01  8.83300000E+01  4.32700000E+01  3.58000000E+01  7.74400000E+01
  5.98700000E+01  4.32800000E+01  5.62900000E+01  7.67900000E+01  6.51300000E+01
  5.62000000E+01  8.09000000E+01  1.09440000E+02
%FLAG ANGLE_EQUIL_VALUE                                                         
%FORMAT(5E16.8)                                                                 
  1.88303654E+00  1.98269488E+00  1.91427794E+00  1.88024401E+00  1.87832415E+00
  1.96576518E+00  1.91270715E+00  1.92649525E+00  1.91392888E+00  1.87430989E+00
  1.92579712E+00  1.73957041E+00  1.89246132E+00
%FLAG DIHEDRAL_FORCE_CONSTANT                                                   
%FORMAT(5E16.8)                                                                 
  4.60000000E-01  8.50000000E-01  8.50000000E-01  8.80000000E-01  8.00000000E-02
  7.50000000E-01  3.37000000E-01  2.50000000E-01  0.00000000E+00  1.20000000E-01
  1.30000000E-01  1.55555556E-01  1.23000000E-01  6.00000000E-02  9.00000000E-02
  1.80000000E-01  5.20000000E-01  9.90000000E-01  3.83333333E-01
%FLAG DIHEDRAL_PERIODICITY                                                      
%FORMAT(5E16.8)                                                                 
  1.00000000E+00  2.00000000E+00  3.00000000E+00  1.00000000E+00  2.00000000E+00
  3.00000000E+00  3.00000000E+00  1.00000000E+00  3.00000000E+00  3.00000000E+00
  3.00000000E+00  3.00000000E+00  3.00000000E+00  3.00000000E+00  3.00000000E+00
  3.00000000E+00  3.00000000E+00  2.00000000E+00  3.00000000E+00
%FLAG DIHEDRAL_PHASE                                                            
%FORMAT(5E16.8)                                                                 
  3.14159400E+00  0.00000000E+00  0.00000000E+00  3.14159400E+00  0.00000000E+00
  0.00000000E+00  0.00000000E+00  0.00000000E+00  0.00000000E+00  0.00000000E+00
  0.00000000E+00  0.00000000E+00  0.00000000E+00  0.00000000E+00  0.00000000E+00
  0.00000000E+00  0.00000000E+00  0.00000000E+00  0.00000000E+00
%FLAG SCEE_SCALE_FACTOR                                                         
%FORMAT(5E16.8)                                                                 
  1.20000000E+00  1.20000000E+00  1.20000000E+00  1.20000000E+00  1.20000000E+00
  1.20000000E+00  1.20000000E+00  1.20000000E+00  1.20000000E+00  1.20000000E+00
  1.20000000E+00  1.20000000E+00  1.20000000E+00  1.20000000E+00  1.20000000E+00
  1.20000000E+00  1.20000000E+00  1.20000000E+00  1.20000000E+00
%FLAG SCNB_SCALE_FACTOR                                                         
%FORMAT(5E16.8)                                                                 
  2.00000000E+00  2.00000000E+00  2.00000000E+00  2.00000000E+00  2.00000000E+00
  2.00000000E+00  2.00000000E+00  2.00000000E+00  2.00000000E+00  2.00000000E+00
  2.00000000E+00  2.00000000E+00  2.00000000E+00  2.00000000E+00  2.00000000E+00
  2.00000000E+00  2.00000000E+00  2.00000000E+00  2.00000000E+00
%FLAG SOLTY                                                                     
%FORMAT(5E16.8)                                                                 
  0.00000000E+00  0.00000000E+00  0.00000000E+00  0.00000000E+00  0.00000000E+00
  0.00000000E+00
%FLAG LENNARD_JONES_ACOEF                                                       
%FORMAT(5E16.8)                                                                 
  1.02073671E+06  7.18991463E+05  5.03152404E+05  3.03553352E+02  1.74176419E+02
  1.10360882E-05  6.97998263E+04  4.69084694E+04  4.36660257E+00  3.39005767E+03
  1.00235148E+05  6.80216136E+04  8.80612241E+00  5.22955465E+03  7.94617769E+03
  5.42502534E+05  3.78207390E+05  1.16469347E+02  3.44374471E+04  5.02224902E+04
  2.83662575E+05
%FLAG LENNARD_JONES_BCOEF                                                       
%FORMAT(5E16.8)                                                                 
  6.63431737E+02  5.36620538E+02  4.32634597E+02  5.22789272E+00  3.81654050E+00
  4.55498033E-04  1.14981426E+02  9.08431526E+01  4.15568027E-01  1.67944276E+01
  1.37787728E+02  1.09393126E+02  5.90150328E-01  2.08590256E+01  2.57122925E+01
  4.38146883E+02  3.52573684E+02  2.93355636E+00  7.31636661E+01  8.83545880E+01
  2.87011518E+02
%FLAG BONDS_INC_HYDROGEN                                                        
%FORMAT(10I8)                                                                   
      24      27       2      24      30       2      12      15       2      12
      18       2      12      21       2       3       6       4       0       9
       6      60      63       2      60      66       2      45      48       2
      45      51       2      45      54       2      42      57       6      96
      99       2      96     102       2      81      84       2      81      87
       2      81      90       2      78      93       6     132     135       2
     132     138       2     117     120       2     117     123       2     117
     126       2     114     129       6     168     171       2     168     174
       2     153     156       2     153     159       2     153     162       2
     150     165       6     204     207       2     204     210       2     189
     192       2     189     195       2     189     198       2     186     201
       6     240     243       2     240     246       2     225     228       2
     225     231       2     225     234       2     222     237       6     276
     279       2     276     282       2     261     264       2     261     267
       2     261     270       2     258     273       6     312     315       2
     312     318       2     297     300       2     297     303       2     297
     306       2     294     309       6     363     366       4     348     351
       2     348     354       2     333     336       2     333     339       2
     333     342       2     330     345       6
%FLAG BONDS_WITHOUT_HYDROGEN                                                    
%FORMAT(10I8)                                                                   
      33      36       1      33      39       1      24      33       3      12
      24       3       0       3       5       0      12       3      69      72
       1      69      75       1      60      69       3      42      45       3
      42      60       3      39      42       1     105     108       1     105
     111       1      96     105       3      78      81       3      78      96
       3      75      78       1     141     144       1     141     147       1
     132     141       3     114     117       3     114     132       3     111
     114       1     177     180       1     177     183       1     168     177
       3     150     153       3     150     168       3     147     150       1
     213     216       1     213     219       1     204     213       3     186
     189       3     186     204       3     183     186       1     249     252
       1     249     255       1     240     249       3     222     225       3
     222     240       3     219     222       1     285     288       1     285
     291       1     276     285       3     258     261       3     258     276
       3     255     258       1     321     324       1     321     327       1
     312     321       3     294     297       3     294     312       3     291
     294       1     360     363       7     357     360       1     348     357
       3     330     333       3     330     348       3     327     330       1
%FLAG ANGLES_INC_HYDROGEN                                                       
%FORMAT(10I8)                                                                   
      30      24      33       3      27      24      30       4      27      24
      33       3      21      12      24       3      18      12      21       4
      18      12      24       3      15      12      18       4      15      12
      21       4      15      12      24       3      12      24      27       3
      12      24      30       3       9       0      12       7       3       0
       9       8       0       3       6      10       0      12      15       3
       0      12      18       3       0      12      21       3      66      60
      69       3      63      60      66       4      63      60      69       3
      57      42      60       7      51      45      54       4      48      45
      51       4      48      45      54       4      45      42      57       7
      42      45      48       3      42      45      51       3      42      45
      54       3      42      60      63       3      42      60      66       3
      39      42      57      11     102      96     105       3      99      96
     102       4      99      96     105       3      93      78      96       7
      87      81      90       4      84      81      87       4      84      81
      90       4      81      78      93       7      78      81      84       3
      78      81      87       3      78      81      90       3      78      96
      99       3      78      96     102       3      75      78      93      11
     138     132     141       3     135     132     138       4     135     132
     141       3     129     114     132       7     123     117     126       4
     120     117     123       4     120     117     126       4     117     114
     129       7     114     117     120       3     114     117     123       3
     114     117     126       3     114     132     135       3     114     132
     138       3     111     114     129      11     174     168     177       3
     171     168     174       4     171     168     177       3     165     150
     168       7     159     153     162       4     156     153     159       4
     156     153     162       4     153     150     165       7     150     153
     156       3     150     153     159       3     150     153     162       3
     150     168     171       3     150     168     174       3     147     150
     165      11     210     204     213       3     207     204     210       4
     207     204     213       3     201     186     204       7     195     189
     198       4     192     189     195       4     192     189     198       4
     189     186     201       7     186     189     192       3     186     189
     195       3     186     189     198       3     186     204     207       3
     186     204     210       3     183     186     201      11     246     240
     249       3     243     240     246       4     243     240     249       3
     237     222     240       7     231     225     234       4     228     225
     231       4     228     225     234       4     225     222     237       7
     222     225     228       3     222     225     231       3     222     225
     234       3     222     240     243       3     222     240     246       3
     219     222     237      11     282     276     285       3     279     276
     282       4     279     276     285       3     273     258     276       7
     267     261     270       4     264     261     267       4     264     261
     270       4     261     258     273       7     258     261     264       3
     258     261     267       3     258     261     270       3     258     276
     279       3     258     276     282       3     255     258     273      11
     318     312     321       3     315     312     318       4     315     312
     321       3     309     294     312       7     303     297     306       4
     300     297     303       4     300     297     306       4     297     294
     309       7     294     297     300       3     294     297     303       3
     294     297     306       3     294     312     315       3     294     312
     318       3     291     294     309      11     360     363     366      12
     354     348     357       3     351     348     354       4     351     348
     357       3     345     330     348       7     339     333     342       4
     336     333     339       4     336     333     342       4     333     330
     345       7     330     333     336       3     330     333     339       3
     330     333     342       3     330     348     351       3     330     348
     354       3     327     330     345      11
%FLAG ANGLES_WITHOUT_HYDROGEN                                                   
%FORMAT(10I8)                                                                   
      36      33      39       1      33      39      42       2      24      33
      36       5      24      33      39       5      12      24      33       6
       3       0      12       9       0      12      24       6      72      69
      75       1      69      75      78       2      60      69      72       5
      60      69      75       5      45      42      60       6      42      60
      69       6      39      42      45       5      39      42      60       5
     108     105     111       1     105     111     114       2      96     105
     108       5      96     105     111       5      81      78      96       6
      78      96     105       6      75      78      81       5      75      78
      96       5     144     141     147       1     141     147     150       2
     132     141     144       5     132     141     147       5     117     114
     132       6     114     132     141       6     111     114     117       5
     111     114     132       5     180     177     183       1     177     183
     186       2     168     177     180       5     168     177     183       5
     153     150     168       6     150     168     177       6     147     150
     153       5     147     150     168       5     216     213     219       1
     213     219     222       2     204     213     216       5     204     213
     219       5     189     186     204       6     186     204     213       6
     183     186     189       5     183     186     204       5     252     249
     255       1     249     255     258       2     240     249     252       5
     240     249     255       5     225     222     240       6     222     240
     249       6     219     222     225       5     219     222     240       5
     288     285     291       1     285     291     294       2     276     285
     288       5     276     285     291       5     261     258     276       6
     258     276     285       6     255     258     261       5     255     258
     276       5     324     321     327       1     321     327     330       2
     312     321     324       5     312     321     327       5     297     294
     312       6     294     312     321       6     291     294     297       5
     291     294     312       5     357     360     363      13     348     357
     360       5     333     330     348       6     330     348     357       6
     327     330     333       5     327     330     348       5
%FLAG DIHEDRALS_INC_HYDROGEN                                                    
%FORMAT(10I8)                                                                   
      33      39      42      57       7      30      24      33      36       8
      30      24     -33      36       9      30      24      33      39       8
      30      24     -33      39       9      27      24      33      36       8
      27      24     -33      36       9      27      24      33      39       8
      27      24     -33      39       9      21      12      24      27      10
      21      12      24      30      10      21      12      24      33      11
      18      12      24      27      10      18      12      24      30      10
      18      12      24      33      11      15      12      24      27      10
      15      12      24      30      10      15      12      24      33      11
       9       0      12      15      12       9       0      12      18      12
       9       0      12      21      12       9       0      12      24      12
       9       0       3       6      13      12       0       3       6      14
       3       0      12      15      15       3       0      12      18      15
       3       0      12      21      15       0      12      24      27      11
       0      12      24      30      11      69      75      78      93       7
      66      60      69      72       8      66      60     -69      72       9
      66      60      69      75       8      66      60     -69      75       9
      63      60      69      72       8      63      60     -69      72       9
      63      60      69      75       8      63      60     -69      75       9
      57      42      60      63      12      57      42      60      66      12
      57      42      60      69      12      54      45      42      57      12
      54      45      42      60      11      51      45      42      57      12
      51      45      42      60      11      48      45      42      57      12
      48      45      42      60      11      45      42      60      63      11
      45      42      60      66      11      39      42      45      48       8
      39      42     -45      48       9      39      42      45      51       8
      39      42     -45      51       9      39      42      45      54       8
      39      42     -45      54       9      39      42      60      63       8
      39      42     -60      63       9      39      42      60      66       8
      39      42     -60      66       9     105     111     114     129       7
     102      96     105     108       8     102      96    -105     108       9
     102      96     105     111       8     102      96    -105     111       9
      99      96     105     108       8      99      96    -105     108       9
      99      96     105     111       8      99      96    -105     111       9
      93      78      96      99      12      93      78      96     102      12
      93      78      96     105      12      90      81      78      93      12
      90      81      78      96      11      87      81      78      93      12
      87      81      78      96      11      84      81      78      93      12
      84      81      78      96      11      81      78      96      99      11
      81      78      96     102      11      75      78      81      84       8
      75      78     -81      84       9      75      78      81      87       8
      75      78     -81      87       9      75      78      81      90       8
      75      78     -81      90       9      75      78      96      99       8
      75      78     -96      99       9      75      78      96     102       8
      75      78     -96     102       9     141     147     150     165       7
     138     132     141     144       8     138     132    -141     144       9
     138     132     141     147       8     138     132    -141     147       9
     135     132     141     144       8     135     132    -141     144       9
     135     132     141     147       8     135     132    -141     147       9
     129     114     132     135      12     129     114     132     138      12
     129     114     132     141      12     126     117     114     129      12
     126     117     114     132      11     123     117     114     129      12
     123     117     114     132      11     120     117     114     129      12
     120     117     114     132      11     117     114     132     135      11
     117     114     132     138      11     111     114     117     120       8
     111     114    -117     120       9     111     114     117     123       8
     111     114    -117     123       9     111     114     117     126       8
     111     114    -117     126       9     111     114     132     135       8
     111     114    -132     135       9     111     114     132     138       8
     111     114    -132     138       9     177     183     186     201       7
     174     168     177     180       8     174     168    -177     180       9
     174     168     177     183       8     174     168    -177     183       9
     171     168     177     180       8     171     168    -177     180       9
     171     168     177     183       8     171     168    -177     183       9
     165     150     168     171      12     165     150     168     174      12
     165     150     168     177      12     162     153     150     165      12
     162     153     150     168      11     159     153     150     165      12
     159     153     150     168      11     156     153     150     165      12
     156     153     150     168      11     153     150     168     171      11
     153     150     168     174      11     147     150     153     156       8
     147     150    -153     156       9     147     150     153     159       8
     147     150    -153     159       9     147     150     153     162       8
     147     150    -153     162       9     147     150     168     171       8
     147     150    -168     171       9     147     150     168     174       8
     147     150    -168     174       9     213     219     222     237       7
     210     204     213     216       8     210     204    -213     216       9
     210     204     213     219       8     210     204    -213     219       9
     207     204     213     216       8     207     204    -213     216       9
     207     204     213     219       8     207     204    -213     219       9
     201     186     204     207      12     201     186     204     210      12
     201     186     204     213      12     198     189     186     201      12
     198     189     186     204      11     195     189     186     201      12
     195     189     186     204      11     192     189     186     201      12
     192     189     186     204      11     189     186     204     207      11
     189     186     204     210      11     183     186     189     192       8
     183     186    -189     192       9     183     186     189     195       8
     183     186    -189     195       9     183     186     189     198       8
     183     186    -189     198       9     183     186     204     207       8
     183     186    -204     207       9     183     186     204     210       8
     183     186    -204     210       9     249     255     258     273       7
     246     240     249     252       8     246     240    -249     252       9
     246     240     249     255       8     246     240    -249     255       9
     243     240     249     252       8     243     240    -249     252       9
     243     240     249     255       8     243     240    -249     255       9
     237     222     240     243      12     237     222     240     246      12
     237     222     240     249      12     234     225     222     237      12
     234     225     222     240      11     231     225     222     237      12
     231     225     222     240      11     228     225     222     237      12
     228     225     222     240      11     225     222     240     243      11
     225     222     240     246      11     219     222     225     228       8
     219     222    -225     228       9     219     222     225     231       8
     219     222    -225     231       9     219     222     225     234       8
     219     222    -225     234       9     219     222     240     243       8
     219     222    -240     243       9     219     222     240     246       8
     219     222    -240     246       9     285     291     294     309       7
     282     276     285     288       8     282     276    -285     288       9
     282     276     285     291       8     282     276    -285     291       9
     279     276     285     288       8     279     276    -285     288       9
     279     276     285     291       8     279     276    -285     291       9
     273     258     276     279      12     273     258     276     282      12
     273     258     276     285      12     270     261     258     273      12
     270     261     258     276      11     267     261     258     273      12
     267     261     258     276      11     264     261     258     273      12
     264     261     258     276      11     261     258     276     279      11
     261     258     276     282      11     255     258     261     264       8
     255     258    -261     264       9     255     258     261     267       8
     255     258    -261     267       9     255     258     261     270       8
     255     258    -261     270       9     255     258     276     279       8
     255     258    -276     279       9     255     258     276     282       8
     255     258    -276     282       9     321     327     330     345       7
     318     312     321     324       8     318     312    -321     324       9
     318     312     321     327       8     318     312    -321     327       9
     315     312     321     324       8     315     312    -321     324       9
     315     312     321     327       8     315     312    -321     327       9
     309     294     312     315      12     309     294     312     318      12
     309     294     312     321      12     306     297     294     309      12
     306     297     294     312      11     303     297     294     309      12
     303     297     294     312      11     300     297     294     309      12
     300     297     294     312      11     297     294     312     315      11
     297     294     312     318      11     291     294     297     300       8
     291     294    -297     300       9     291     294     297     303       8
     291     294    -297     303       9     291     294     297     306       8
     291     294    -297     306       9     291     294     312     315       8
     291     294    -312     315       9     291     294     312     318       8
     291     294    -312     318       9     357     360     363     366      18
     354     348     357     360       8     354     348    -357     360       9
     351     348     357     360       8     351     348    -357     360       9
     345     330     348     351      12     345     330     348     354      12
     345     330     348     357      12     342     333     330     345      12
     342     333     330     348      11     339     333     330     345      12
     339     333     330     348      11     336     333     330     345      12
     336     333     330     348      11     333     330     348     351      11
     333     330     348     354      11     327     330     333     336       8
     327     330    -333     336       9     327     330     333     339       8
     327     330    -333     339       9     327     330     333     342       8
     327     330    -333     342       9     327     330     348     351       8
     327     330    -348     351       9     327     330     348     354       8
     327     330    -348     354       9
%FLAG DIHEDRALS_WITHOUT_HYDROGEN                                                
%FORMAT(10I8)                                                                   
      36      33      39      42       1      36      33     -39      42       2
      36      33     -39      42       3      33      39      42      45       4
      33      39     -42      45       5      33      39     -42      45       6
      33      39      42      60       4      33      39     -42      60       5
      33      39     -42      60       6      24      33      39      42       4
      24      33     -39      42       5      24      33     -39      42       6
      12      24      33      36      12      12      24      33      39      12
       3       0      12      24      16       0      12      24      33      17
      72      69      75      78       1      72      69     -75      78       2
      72      69     -75      78       3      69      75      78      81       4
      69      75     -78      81       5      69      75     -78      81       6
      69      75      78      96       4      69      75     -78      96       5
      69      75     -78      96       6      60      69      75      78       4
      60      69     -75      78       5      60      69     -75      78       6
      45      42      60      69      17      42      60      69      72      12
      42      60      69      75      12      39      42      60      69      12
     108     105     111     114       1     108     105    -111     114       2
     108     105    -111     114       3     105     111     114     117       4
     105     111    -114     117       5     105     111    -114     117       6
     105     111     114     132       4     105     111    -114     132       5
     105     111    -114     132       6      96     105     111     114       4
      96     105    -111     114       5      96     105    -111     114       6
      81      78      96     105      17      78      96     105     108      12
      78      96     105     111      12      75      78      96     105      12
     144     141     147     150       1     144     141    -147     150       2
     144     141    -147     150       3     141     147     150     153       4
     141     147    -150     153       5     141     147    -150     153       6
     141     147     150     168       4     141     147    -150     168       5
     141     147    -150     168       6     132     141     147     150       4
     132     141    -147     150       5     132     141    -147     150       6
     117     114     132     141      17     114     132     141     144      12
     114     132     141     147      12     111     114     132     141      12
     180     177     183     186       1     180     177    -183     186       2
     180     177    -183     186       3     177     183     186     189       4
     177     183    -186     189       5     177     183    -186     189       6
     177     183     186     204       4     177     183    -186     204       5
     177     183    -186     204       6     168     177     183     186       4
     168     177    -183     186       5     168     177    -183     186       6
     153     150     168     177      17     150     168     177     180      12
     150     168     177     183      12     147     150     168     177      12
     216     213     219     222       1     216     213    -219     222       2
     216     213    -219     222       3     213     219     222     225       4
     213     219    -222     225       5     213     219    -222     225       6
     213     219     222     240       4     213     219    -222     240       5
     213     219    -222     240       6     204     213     219     222       4
     204     213    -219     222       5     204     213    -219     222       6
     189     186     204     213      17     186     204     213     216      12
     186     204     213     219      12     183     186     204     213      12
     252     249     255     258       1     252     249    -255     258       2
     252     249    -255     258       3     249     255     258     261       4
     249     255    -258     261       5     249     255    -258     261       6
     249     255     258     276       4     249     255    -258     276       5
     249     255    -258     276       6     240     249     255     258       4
     240     249    -255     258       5     240     249    -255     258       6
     225     222     240     249      17     222     240     249     252      12
     222     240     249     255      12     219     222     240     249      12
     288     285     291     294       1     288     285    -291     294       2
     288     285    -291     294       3     285     291     294     297       4
     285     291    -294     297       5     285     291    -294     297       6
     285     291     294     312       4     285     291    -294     312       5
     285     291    -294     312       6     276     285     291     294       4
     276     285    -291     294       5     276     285    -291     294       6
     261     258     276     285      17     258     276     285     288      12
     258     276     285     291      12     255     258     276     285      12
     324     321     327     330       1     324     321    -327     330       2
     324     321    -327     330       3     321     327     330     333       4
     321     327    -330     333       5     321     327    -330     333       6
     321     327     330     348       4     321     327    -330     348       5
     321     327    -330     348       6     312     321     327     330       4
     312     321    -327     330       5     312     321    -327     330       6
     297     294     312     321      17     294     312     321     324      12
     294     312     321     327      12     291     294     312     321      12
     348     357     360     363      19     333     330     348     357      17
     330     348     357     360      12     327     330     348     357      12
%FLAG EXCLUDED_ATOMS_LIST                                                       
%FORMAT(10I8)                                                                   
       2       3       4       5       6       7       8       9      10      11
      12       3       4       5       6       7       8       9       4       5
       5       6       7       8       9       6       7       8       9      10
      11      12      13      14       7       8       9      10      11      12
       8       9      10      11      12       9      10      11      12      10
      11      12      13      14      15      11      12      13      14      12
      13      14      13      14      15      16      20      21      14      15
      15      16      17      18      19      20      21      22      23      24
      16      17      18      19      20      21      22      23      24      25
      26      17      18      19      20      21      22      23      24      18
      19      20      21      19      20      21      20      21      21      22
      23      24      22      23      24      25      26      27      23      24
      25      26      24      25      26      25      26      27      28      32
      33      26      27      27      28      29      30      31      32      33
      34      35      36      28      29      30      31      32      33      34
      35      36      37      38      29      30      31      32      33      34
      35      36      30      31      32      33      31      32      33      32
      33      33      34      35      36      34      35      36      37      38
      39      35      36      37      38      36      37      38      37      38
      39      40      44      45      38      39      39      40      41      42
      43      44      45      46      47      48      40      41      42      43
      44      45      46      47      48      49      50      41      42      43
      44      45      46      47      48      42      43      44      45      43
      44      45      44      45      45      46      47      48      46      47
      48      49      50      51      47      48      49      50      48      49
      50      49      50      51      52      56      57      50      51      51
      52      53      54      55      56      57      58      59      60      52
      53      54      55      56      57      58      59      60      61      62
      53      54      55      56      57      58      59      60      54      55
      56      57      55      56      57      56      57      57      58      59
      60      58      59      60      61      62      63      59      60      61
      62      60      61      62      61      62      63      64      68      69
      62      63      63      64      65      66      67      68      69      70
      71      72      64      65      66      67      68      69      70      71
      72      73      74      65      66      67      68      69      70      71
      72      66      67      68      69      67      68      69      68      69
      69      70      71      72      70      71      72      73      74      75
      71      72      73      74      72      73      74      73      74      75
      76      80      81      74      75      75      76      77      78      79
      80      81      82      83      84      76      77      78      79      80
      81      82      83      84      85      86      77      78      79      80
      81      82      83      84      78      79      80      81      79      80
      81      80      81      81      82      83      84      82      83      84
      85      86      87      83      84      85      86      84      85      86
      85      86      87      88      92      93      86      87      87      88
      89      90      91      92      93      94      95      96      88      89
      90      91      92      93      94      95      96      97      98      89
      90      91      92      93      94      95      96      90      91      92
      93      91      92      93      92      93      93      94      95      96
      94      95      96      97      98      99      95      96      97      98
      96      97      98      97      98      99     100     104     105      98
      99      99     100     101     102     103     104     105     106     107
     108     100     101     102     103     104     105     106     107     108
     109     110     101     102     103     104     105     106     107     108
     102     103     104     105     103     104     105     104     105     105
     106     107     108     106     107     108     109     110     111     107
     108     109     110     108     109     110     109     110     111     112
     116     117     110     111     111     112     113     114     115     116
     117     118     119     120     112     113     114     115     116     117
     118     119     120     121     113     114     115     116     117     118
     119     120     114     115     116     117     115     116     117     116
     117     117     118     119     120     118     119     120     121     122
     119     120     121     120     121     121     122     123     122     123
     123       0
%FLAG HBOND_ACOEF                                                               
%FORMAT(5E16.8)                                                                 

%FLAG HBOND_BCOEF                                                               
%FORMAT(5E16.8)                                                                 

%FLAG HBCUT                                                                     
%FORMAT(5E16.8)                                                                 

%FLAG AMBER_ATOM_TYPE                                                           
%FORMAT(20a4)                                                                   
c3  oh  ho  h1  c3  hc  hc  hc  c3  hc  hc  c3  os  os  c3  c3  hc  hc  hc  h1  
c3  hc  hc  c3  os  os  c3  c3  hc  hc  hc  h1  c3  hc  hc  c3  os  os  c3  c3  
hc  hc  hc  h1  c3  hc  hc  c3  os  os  c3  c3  hc  hc  hc  h1  c3  hc  hc  c3  
os  os  c3  c3  hc  hc  hc  h1  c3  hc  hc  c3  os  os  c3  c3  hc  hc  hc  h1  
c3  hc  hc  c3  os  os  c3  c3  hc  hc  hc  h1  c3  hc  hc  c3  os  os  c3  c3  
hc  hc  hc  h1  c3  hc  hc  c3  os  os  c3  c3  hc  hc  hc  h1  c3  hc  hc  c3  
os  oh  ho  
%FLAG TREE_CHAIN_CLASSIFICATION                                                 
%FORMAT(20a4)                                                                   
M   S   E   E   M   E   E   E   M   E   E   M   E   M   M   3   E   E   E   E   
M   E   E   M   E   M   M   3   E   E   E   E   M   E   E   M   E   M   M   3   
E   E   E   E   M   E   E   M   E   M   M   3   E   E   E   E   M   E   E   M   
E   M   M   3   E   E   E   E   M   E   E   M   E   M   M   3   E   E   E   E   
M   E   E   M   E   M   M   3   E   E   E   E   M   E   E   M   E   M   M   3   
E   E   E   E   M   E   E   M   E   M   M   3   E   E   E   E   M   E   E   M   
S   S   E   
%FLAG JOIN_ARRAY                                                                
%FORMAT(10I8)                                                                   
       0       0       0       0       0       0       0       0       0       0
       0       0       0       0       0       0       0       0       0       0
       0       0       0       0       0       0       0       0       0       0
       0       0       0       0       0       0       0       0       0       0
       0       0       0       0       0       0       0       0       0       0
       0       0       0       0       0       0       0       0       0       0
       0       0       0       0       0       0       0       0       0       0
       0       0       0       0       0       0       0       0       0       0
       0       0       0       0       0       0       0       0       0       0
       0       0       0       0       0       0       0       0       0       0
       0       0       0       0       0       0       0       0       0       0
       0       0       0       0       0       0       0       0       0       0
       0       0       0
%FLAG IROTAT                                                                    
%FORMAT(10I8)                                                                   
       0       0       0       0       0       0       0       0       0       0
       0       0       0       0       0       0       0       0       0       0
       0       0       0       0       0       0       0       0       0       0
       0       0       0       0       0       0       0       0       0       0
       0       0       0       0       0       0       0       0       0       0
       0       0       0       0       0       0       0       0       0       0
       0       0       0       0       0       0       0       0       0       0
       0       0       0       0       0       0       0       0       0       0
       0       0       0       0       0       0       0       0       0       0
       0       0       0       0       0       0       0       0       0       0
       0       0       0       0       0       0       0       0       0       0
       0       0       0       0       0       0       0       0       0       0
       0       0       0
%FLAG RADIUS_SET                                                                
%FORMAT(1a80)                                                                   
modified Bondi radii (mbondi)                                                   
%FLAG RADII                                                                     
%FORMAT(5E16.8)                                                                 
  1.70000000E+00  1.50000000E+00  8.00000000E-01  1.30000000E+00  1.70000000E+00
  1.30000000E+00  1.30000000E+00  1.30000000E+00  1.70000000E+00  1.30000000E+00
  1.30000000E+00  1.70000000E+00  1.50000000E+00  1.50000000E+00  1.70000000E+00
  1.70000000E+00  1.30000000E+00  1.30000000E+00  1.30000000E+00  1.30000000E+00
  1.70000000E+00  1.30000000E+00  1.30000000E+00  1.70000000E+00  1.50000000E+00
  1.50000000E+00  1.70000000E+00  1.70000000E+00  1.30000000E+00  1.30000000E+00
  1.30000000E+00  1.30000000E+00  1.70000000E+00  1.30000000E+00  1.30000000E+00
  1.70000000E+00  1.50000000E+00  1.50000000E+00  1.70000000E+00  1.70000000E+00
  1.30000000E+00  1.30000000E+00  1.30000000E+00  1.30000000E+00  1.70000000E+00
  1.30000000E+00  1.30000000E+00  1.70000000E+00  1.50000000E+00  1.50000000E+00
  1.70000000E+00  1.70000000E+00  1.30000000E+00  1.30000000E+00  1.30000000E+00
  1.30000000E+00  1.70000000E+00  1.30000000E+00  1.30000000E+00  1.70000000E+00
  1.50000000E+00  1.50000000E+00  1.70000000E+00  1.70000000E+00  1.30000000E+00
  1.30000000E+00  1.30000000E+00  1.30000000E+00  1.70000000E+00  1.30000000E+00
  1.30000000E+00  1.70000000E+00  1.50000000E+00  1.50000000E+00  1.70000000E+00
  1.70000000E+00  1.30000000E+00  1.30000000E+00  1.30000000E+00  1.30000000E+00
  1.70000000E+00  1.30000000E+00  1.30000000E+00  1.70000000E+00  1.50000000E+00
  1.50000000E+00  1.70000000E+00  1.70000000E+00  1.30000000E+00  1.30000000E+00
  1.30000000E+00  1.30000000E+00  1.70000000E+00  1.30000000E+00  1.30000000E+00
  1.70000000E+00  1.50000000E+00  1.50000000E+00  1.70000000E+00  1.70000000E+00
  1.30000000E+00  1.30000000E+00  1.30000000E+00  1.30000000E+00  1.70000000E+00
  1.30000000E+00  1.30000000E+00  1.70000000E+00  1.50000000E+00  1.50000000E+00
  1.70000000E+00  1.70000000E+00  1.30000000E+00  1.30000000E+00  1.30000000E+00
  1.30000000E+00  1.70000000E+00  1.30000000E+00  1.30000000E+00  1.70000000E+00
  1.50000000E+00  1.50000000E+00  8.00000000E-01
%FLAG SCREEN                                                                    
%FORMAT(5E16.8)                                                                 
  7.20000000E-01  8.50000000E-01  8.50000000E-01  8.50000000E-01  7.20000000E-01
  8.50000000E-01  8.50000000E-01  8.50000000E-01  7.20000000E-01  8.50000000E-01
  8.50000000E-01  7.20000000E-01  8.50000000E-01  8.50000000E-01  7.20000000E-01
  7.20000000E-01  8.50000000E-01  8.50000000E-01  8.50000000E-01  8.50000000E-01
  7.20000000E-01  8.50000000E-01  8.50000000E-01  7.20000000E-01  8.50000000E-01
  8.50000000E-01  7.20000000E-01  7.20000000E-01  8.50000000E-01  8.50000000E-01
  8.50000000E-01  8.50000000E-01  7.20000000E-01  8.50000000E-01  8.50000000E-01
  7.20000000E-01  8.50000000E-01  8.50000000E-01  7.20000000E-01  7.20000000E-01
  8.50000000E-01  8.50000000E-01  8.50000000E-01  8.50000000E-01  7.20000000E-01
  8.50000000E-01  8.50000000E-01  7.20000000E-01  8.50000000E-01  8.50000000E-01
  7.20000000E-01  7.20000000E-01  8.50000000E-01  8.50000000E-01  8.50000000E-01
  8.50000000E-01  7.20000000E-01  8.50000000E-01  8.50000000E-01  7.20000000E-01
  8.50000000E-01  8.50000000E-01  7.20000000E-01  7.20000000E-01  8.50000000E-01
  8.50000000E-01  8.50000000E-01  8.50000000E-01  7.20000000E-01  8.50000000E-01
  8.50000000E-01  7.20000000E-01  8.50000000E-01  8.50000000E-01  7.20000000E-01
  7.20000000E-01  8.50000000E-01  8.50000000E-01  8.50000000E-01  8.50000000E-01
  7.20000000E-01  8.50000000E-01  8.50000000E-01  7.20000000E-01  8.50000000E-01
  8.50000000E-01  7.20000000E-01  7.20000000E-01  8.50000000E-01  8.50000000E-01
  8.50000000E-01  8.50000000E-01  7.20000000E-01  8.50000000E-01  8.50000000E-01
  7.20000000E-01  8.50000000E-01  8.50000000E-01  7.20000000E-01  7.20000000E-01
  8.50000000E-01  8.50000000E-01  8.50000000E-01  8.50000000E-01  7.20000000E-01
  8.50000000E-01  8.50000000E-01  7.20000000E-01  8.50000000E-01  8.50000000E-01
  7.20000000E-01  7.20000000E-01  8.50000000E-01  8.50000000E-01  8.50000000E-01
  8.50000000E-01  7.20000000E-01  8.50000000E-01  8.50000000E-01  7.20000000E-01
  8.50000000E-01  8.50000000E-01  8.50000000E-01
%FLAG IPOL                                                                      
%FORMAT(1I8)                                                                    
       0
