/Users/daniel/miniconda3/envs/AmberTools23/bin/polyply gen_coords -p 25_P3HB_10_melt.top -o 25_P3HB_10_melt.gro -dens 750
3198
    1AAB      C    1   3.612   0.656   1.198
    1AAB      O    2   3.641   0.688   1.251
    1AAB      H    3   3.629   0.715   1.253
    1AAB     H1    4   3.572   0.680   1.183
    1AAB     C1    5   3.598   0.600   1.216
    1AAB     H2    6   3.641   0.603   1.240
    1AAB     H3    7   3.555   0.619   1.224
    1AAB     H4    8   3.587   0.581   1.256
    1AAB     C2    9   3.598   0.553   1.166
    1AAB     H5   10   3.633   0.522   1.174
    1AAB     H6   11   3.604   0.568   1.137
    1AAB     C3   12   3.560   0.531   1.163
    1AAB     O1   13   3.571   0.485   1.140
    2AAC     O2   14   3.388   0.245   0.940
    2AAC     C4   15   3.378   0.233   0.995
    2AAC     C5   16   3.362   0.173   0.998
    2AAC     H8   17   3.329   0.165   0.971
    2AAC     H9   18   3.350   0.163   1.039
    2AAC    H10   19   3.396   0.148   0.987
    2AAC     H7   20   3.414   0.239   1.019
    2AAC     C6   21   3.333   0.270   1.015
    2AAC    H11   22   3.297   0.263   0.991
    2AAC    H12   23   3.323   0.261   1.056
    2AAC     C7   24   3.349   0.330   1.011
    2AAC     O3   25   3.303   0.361   1.021
    3AAC     O2   26   3.244   3.500   1.262
    3AAC     C4   27   3.263   3.546   1.291
    3AAC     C5   28   3.260   3.533   1.351
    3AAC     H8   29   3.219   3.520   1.361
    3AAC     H9   30   3.270   3.568   1.375
    3AAC    H10   31   3.287   3.500   1.361
    3AAC     H7   32   3.305   3.554   1.280
    3AAC     C6   33   3.228   3.594   1.275
    3AAC    H11   34   3.186   3.586   1.286
    3AAC    H12   35   3.240   3.629   1.298
    3AAC     C7   36   3.231   3.607   1.215
    3AAC     O3   37   3.191   3.645   1.203
    4AAC     O2   38   2.989   3.349   1.051
    4AAC     C4   39   2.944   3.334   1.019
    4AAC     C5   40   2.895   3.363   1.041
    4AAC     H8   41   2.890   3.354   1.084
    4AAC     H9   42   2.859   3.350   1.020
    4AAC    H10   43   2.899   3.406   1.037
    4AAC     H7   44   2.951   3.347   0.977
    4AAC     C6   45   2.939   3.273   1.021
    4AAC    H11   46   2.932   3.260   1.062
    4AAC    H12   47   2.904   3.261   0.997
    4AAC     C7   48   2.989   3.244   0.998
    4AAC     O3   49   2.984   3.188   1.010
    5AAC     O2   50   3.133   2.968   0.905
    5AAC     C4   51   3.179   2.954   0.873
    5AAC     C5   52   3.166   2.966   0.815
    5AAC     H8   53   3.129   2.946   0.803
    5AAC     H9   54   3.198   2.952   0.789
    5AAC    H10   55   3.161   3.009   0.809
    5AAC     H7   56   3.214   2.978   0.886
    5AAC     C6   57   3.191   2.894   0.883
    5AAC    H11   58   3.156   2.870   0.871
    5AAC    H12   59   3.225   2.882   0.859
    5AAC     C7   60   3.204   2.882   0.943
    5AAC     O3   61   3.205   2.826   0.949
    6AAC     O2   62   3.396   2.784   1.237
    6AAC     C4   63   3.405   2.835   1.262
    6AAC     C5   64   3.463   2.836   1.281
    6AAC     H8   65   3.471   2.801   1.308
    6AAC     H9   66   3.470   2.873   1.304
    6AAC    H10   67   3.490   2.834   1.248
    6AAC     H7   68   3.399   2.867   1.232
    6AAC     C6   69   3.364   2.841   1.308
    6AAC    H11   70   3.370   2.809   1.337
    6AAC    H12   71   3.371   2.879   1.328
    6AAC     C7   72   3.305   2.840   1.287
    6AAC     O3   73   3.271   2.836   1.333
    7AAC     O2   74   0.166   2.941   1.034
    7AAC     C4   75   0.119   2.945   1.066
    7AAC     C5   76   0.071   2.939   1.028
    7AAC     H8   77   0.073   2.967   0.995
    7AAC     H9   78   0.033   2.947   1.050
    7AAC    H10   79   0.069   2.898   1.012
    7AAC     H7   80   0.118   2.914   1.096
    7AAC     C6   81   0.120   3.000   1.093
    7AAC    H11   82   0.121   3.032   1.063
    7AAC    H12   83   0.084   3.006   1.117
    7AAC     C7   84   0.169   3.007   1.130
    7AAC     O3   85   0.172   3.061   1.146
    8AAC     O2   86   3.596   3.110   1.499
    8AAC     C4   87   3.652   3.116   1.489
    8AAC     C5   88   3.673   3.062   1.470
    8AAC     H8   89   3.663   3.031   1.499
    8AAC     H9   90   3.717   3.063   1.466
    8AAC    H10   91   3.656   3.052   1.431
    8AAC     H7   92   3.659   3.146   1.458
    8AAC     C6   93   3.679   3.135   1.542
    8AAC    H11   94   3.672   3.105   1.573
    8AAC    H12   95   3.722   3.138   1.536
    8AAC     C7   96   3.657   3.190   1.561
    8AAC     O3   97   3.677   3.199   1.614
    9AAC     O2   98   3.507   3.153   1.888
    9AAC     C4   99   3.498   3.167   1.943
    9AAC     C5  100   3.502   3.116   1.976
    9AAC     H8  101   3.476   3.084   1.960
    9AAC     H9  102   3.491   3.123   2.018
    9AAC    H10  103   3.544   3.100   1.975
    9AAC     H7  104   3.528   3.196   1.957
    9AAC     C6  105   3.441   3.192   1.946
    9AAC    H11  106   3.412   3.163   1.933
    9AAC    H12  107   3.432   3.202   1.988
    9AAC     C7  108   3.437   3.244   1.912
    9AAC     O3  109   3.382   3.259   1.911
   10AAD     O4  110   3.372   3.493   1.722
   10AAD     C8  111   3.378   3.516   1.670
   10AAD     C9  112   3.369   3.471   1.630
   10AAD    H14  113   3.334   3.447   1.640
   10AAD    H15  114   3.363   3.487   1.589
   10AAD    H16  115   3.404   3.444   1.629
   10AAD    H13  116   3.418   3.533   1.664
   10AAD    C10  117   3.336   3.560   1.664
   10AAD    H17  118   3.320   3.560   1.623
   10AAD    H18  119   3.302   3.551   1.691
   10AAD    C11  120   3.359   3.615   1.678
   10AAD     O5  121   3.317   3.647   1.699
   10AAD     O6  122   3.323   3.701   1.679
   10AAD    H19  123   3.292   3.718   1.696
    1AAB      C  124   0.157   1.989   3.236
    1AAB      O  125   0.164   1.946   3.289
    1AAB      H  126   0.139   1.931   3.291
    1AAB     H1  127   0.117   1.977   3.209
    1AAB     C1  128   0.207   1.986   3.202
    1AAB     H2  129   0.229   1.983   3.246
    1AAB     H3  130   0.181   1.954   3.177
    1AAB     H4  131   0.238   1.953   3.195
    1AAB     C2  132   0.222   2.043   3.168
    1AAB     H5  133   0.263   2.061   3.185
    1AAB     H6  134   0.199   2.066   3.172
    1AAB     C3  135   0.227   2.036   3.125
    1AAB     O1  136   0.258   2.075   3.106
    2AAC     O2  137   0.363   2.185   2.869
    2AAC     C4  138   0.357   2.218   2.823
    2AAC     C5  139   0.303   2.204   2.797
    2AAC     H8  140   0.300   2.160   2.790
    2AAC     H9  141   0.299   2.224   2.759
    2AAC    H10  142   0.270   2.216   2.823
    2AAC     H7  143   0.358   2.260   2.833
    2AAC     C6  144   0.405   2.205   2.785
    2AAC    H11  145   0.404   2.163   2.775
    2AAC    H12  146   0.401   2.228   2.748
    2AAC     C7  147   0.459   2.219   2.812
    2AAC     O3  148   0.500   2.198   2.778
    3AAC     O2  149   0.794   2.229   2.716
    3AAC     C4  150   0.843   2.241   2.742
    3AAC     C5  151   0.835   2.232   2.802
    3AAC     H8  152   0.800   2.255   2.816
    3AAC     H9  153   0.870   2.245   2.825
    3AAC    H10  154   0.828   2.190   2.810
    3AAC     H7  155   0.875   2.215   2.728
    3AAC     C6  156   0.858   2.300   2.729
    3AAC    H11  157   0.825   2.326   2.743
    3AAC    H12  158   0.894   2.311   2.750
    3AAC     C7  159   0.866   2.309   2.668
    3AAC     O3  160   0.869   2.365   2.659
    4AAC     O2  161   0.737   2.734   2.619
    4AAC     C4  162   0.753   2.708   2.570
    4AAC     C5  163   0.769   2.650   2.584
    4AAC     H8  164   0.800   2.650   2.616
    4AAC     H9  165   0.786   2.630   2.549
    4AAC    H10  166   0.734   2.628   2.599
    4AAC     H7  167   0.719   2.707   2.542
    4AAC     C6  168   0.800   2.740   2.546
    4AAC    H11  169   0.833   2.741   2.574
    4AAC    H12  170   0.814   2.720   2.510
    4AAC     C7  171   0.783   2.798   2.532
    4AAC     O3  172   0.830   2.827   2.519
    5AAC     O2  173   0.941   2.892   2.216
    5AAC     C4  174   0.995   2.904   2.201
    5AAC     C5  175   1.022   2.929   2.250
    5AAC     H8  176   0.999   2.963   2.265
    5AAC     H9  177   1.062   2.944   2.240
    5AAC    H10  178   1.026   2.899   2.282
    5AAC     H7  179   1.016   2.868   2.189
    5AAC     C6  180   0.992   2.943   2.153
    5AAC    H11  181   0.970   2.980   2.165
    5AAC    H12  182   1.033   2.955   2.142
    5AAC     C7  183   0.964   2.918   2.104
    5AAC     O3  184   0.955   2.960   2.066
    6AAC     O2  185   0.930   2.974   1.781
    6AAC     C4  186   0.948   2.996   1.731
    6AAC     C5  187   0.969   3.053   1.743
    6AAC     H8  188   0.938   3.077   1.764
    6AAC     H9  189   0.979   3.073   1.705
    6AAC    H10  190   1.005   3.051   1.768
    6AAC     H7  191   0.980   2.972   1.715
    6AAC     C6  192   0.899   2.996   1.692
    6AAC    H11  193   0.867   3.021   1.709
    6AAC    H12  194   0.912   3.015   1.655
    6AAC     C7  195   0.878   2.939   1.682
    6AAC     O3  196   0.829   2.944   1.653
    7AAC     O2  197   0.693   2.712   1.506
    7AAC     C4  198   0.719   2.665   1.487
    7AAC     C5  199   0.773   2.682   1.464
    7AAC     H8  200   0.768   2.713   1.433
    7AAC     H9  201   0.794   2.648   1.446
    7AAC    H10  202   0.799   2.698   1.496
    7AAC     H7  203   0.726   2.637   1.521
    7AAC     C6  204   0.683   2.638   1.445
    7AAC    H11  205   0.676   2.666   1.412
    7AAC    H12  206   0.703   2.603   1.429
    7AAC     C7  207   0.628   2.621   1.469
    7AAC     O3  208   0.594   2.606   1.426
    8AAC     O2  209   0.454   2.337   1.404
    8AAC     C4  210   0.416   2.299   1.384
    8AAC     C5  211   0.397   2.265   1.431
    8AAC     H8  212   0.432   2.247   1.452
    8AAC     H9  213   0.371   2.233   1.417
    8AAC    H10  214   0.375   2.289   1.460
    8AAC     H7  215   0.382   2.321   1.367
    8AAC     C6  216   0.444   2.266   1.340
    8AAC    H11  217   0.478   2.245   1.357
    8AAC    H12  218   0.416   2.236   1.325
    8AAC     C7  219   0.463   2.301   1.293
    8AAC     O3  220   0.496   2.268   1.259
    9AAC     O2  221   0.586   2.441   1.029
    9AAC     C4  222   0.627   2.442   0.989
    9AAC     C5  223   0.681   2.446   1.017
    9AAC     H8  224   0.681   2.481   1.045
    9AAC     H9  225   0.713   2.452   0.988
    9AAC    H10  226   0.689   2.410   1.040
    9AAC     H7  227   0.626   2.405   0.965
    9AAC     C6  228   0.615   2.491   0.953
    9AAC    H11  229   0.617   2.527   0.976
    9AAC    H12  230   0.647   2.494   0.922
    9AAC     C7  231   0.560   2.486   0.925
    9AAC     O3  232   0.550   2.537   0.900
   10AAD     O4  233   0.357   2.599   0.703
   10AAD     C8  234   0.344   2.602   0.648
   10AAD     C9  235   0.369   2.555   0.620
   10AAD    H14  236   0.362   2.518   0.642
   10AAD    H15  237   0.353   2.550   0.579
   10AAD    H16  238   0.413   2.561   0.617
   10AAD    H13  239   0.359   2.640   0.631
   10AAD    C10  240   0.283   2.602   0.643
   10AAD    H17  241   0.271   2.580   0.607
   10AAD    H18  242   0.266   2.581   0.678
   10AAD    C11  243   0.259   2.658   0.641
   10AAD     O5  244   0.207   2.656   0.664
   10AAD     O6  245   0.172   2.692   0.633
   10AAD    H19  246   0.139   2.687   0.653
    1AAB      C  247   3.030   3.562  -0.030
    1AAB      O  248   3.091   3.578  -0.058
    1AAB      H  249   3.093   3.565  -0.083
    1AAB     H1  250   3.000   3.542  -0.065
    1AAB     C1  251   3.006   3.613  -0.008
    1AAB     H2  252   3.052   3.622   0.006
    1AAB     H3  253   2.984   3.615  -0.050
    1AAB     H4  254   3.010   3.657  -0.018
    1AAB     C2  255   2.963   3.603   0.045
    1AAB     H5  256   2.983   3.622   0.084
    1AAB     H6  257   2.960   3.571   0.051
    1AAB     C3  258   2.924   3.621   0.039
    1AAB     O1  259   2.903   3.630   0.087
    2AAC     O2  260   2.646   3.737   0.302
    2AAC     C4  261   2.637   3.686   0.278
    2AAC     C5  262   2.648   3.692   0.218
    2AAC     H8  263   2.625   3.725   0.201
    2AAC     H9  264   2.637   3.655   0.196
    2AAC    H10  265   2.691   3.700   0.211
    2AAC     H7  266   2.663   3.656   0.295
    2AAC     C6  267   2.578   3.670   0.289
    2AAC    H11  268   2.551   3.701   0.272
    2AAC    H12  269   2.569   3.632   0.270
    2AAC     C7  270   2.567   3.665   0.350
    2AAC     O3  271   2.510   3.660   0.356
    3AAC     O2  272   2.616   3.676   3.453
    3AAC     C4  273   2.661   3.657   3.482
    3AAC     C5  274   2.646   3.660   3.542
    3AAC     H8  275   2.633   3.700   3.553
    3AAC     H9  276   2.681   3.650   3.567
    3AAC    H10  277   2.614   3.631   3.551
    3AAC     H7  278   2.670   3.616   3.471
    3AAC     C6  279   2.709   3.694   3.468
    3AAC    H11  280   2.699   3.735   3.479
    3AAC    H12  281   2.744   3.682   3.492
    3AAC     C7  282   2.723   3.692   3.408
    3AAC     O3  283   2.761   3.733   3.397
    4AAC     O2  284   2.677   3.452   3.117
    4AAC     C4  285   2.627   3.431   3.099
    4AAC     C5  286   2.597   3.411   3.149
    4AAC     H8  287   2.622   3.383   3.172
    4AAC     H9  288   2.560   3.390   3.137
    4AAC    H10  289   2.586   3.445   3.174
    4AAC     H7  290   2.604   3.461   3.079
    4AAC     C6  291   2.640   3.385   3.059
    4AAC    H11  292   2.663   3.354   3.080
    4AAC    H12  293   2.602   3.366   3.046
    4AAC     C7  294   2.671   3.404   3.010
    4AAC     O3  295   2.689   3.358   2.981
    5AAC     O2  296   2.688   3.321   2.679
    5AAC     C4  297   2.733   3.296   2.652
    5AAC     C5  298   2.784   3.316   2.680
    5AAC     H8  299   2.785   3.360   2.680
    5AAC     H9  300   2.819   3.302   2.658
    5AAC    H10  301   2.786   3.302   2.721
    5AAC     H7  302   2.730   3.253   2.656
    5AAC     C6  303   2.730   3.312   2.593
    5AAC    H11  304   2.732   3.356   2.589
    5AAC    H12  305   2.765   3.295   2.572
    5AAC     C7  306   2.678   3.292   2.566
    5AAC     O3  307   2.675   3.317   2.514
    6AAC     O2  308   2.603   3.230   2.245
    6AAC     C4  309   2.558   3.216   2.213
    6AAC     C5  310   2.525   3.174   2.244
    6AAC     H8  311   2.551   3.140   2.256
    6AAC     H9  312   2.493   3.159   2.219
    6AAC    H10  313   2.508   3.192   2.280
    6AAC     H7  314   2.533   3.251   2.205
    6AAC     C6  315   2.580   3.194   2.159
    6AAC    H11  316   2.605   3.159   2.167
    6AAC    H12  317   2.546   3.181   2.134
    6AAC     C7  318   2.613   3.236   2.129
    6AAC     O3  319   2.639   3.210   2.085
    7AAC     O2  320   2.705   3.352   1.824
    7AAC     C4  321   2.760   3.356   1.808
    7AAC     C5  322   2.769   3.414   1.790
    7AAC     H8  323   2.740   3.425   1.758
    7AAC     H9  324   2.810   3.418   1.773
    7AAC    H10  325   2.765   3.442   1.823
    7AAC     H7  326   2.786   3.347   1.842
    7AAC     C6  327   2.770   3.315   1.763
    7AAC    H11  328   2.744   3.323   1.729
    7AAC    H12  329   2.811   3.318   1.749
    7AAC     C7  330   2.760   3.257   1.782
    7AAC     O3  331   2.761   3.223   1.736
    8AAC     O2  332   2.648   0.196   1.777
    8AAC     C4  333   2.651   0.143   1.755
    8AAC     C5  334   2.593   0.122   1.752
    8AAC     H8  335   2.574   0.125   1.791
    8AAC     H9  336   2.593   0.080   1.739
    8AAC    H10  337   2.569   0.145   1.723
    8AAC     H7  338   2.668   0.144   1.714
    8AAC     C6  339   2.687   0.109   1.791
    8AAC    H11  340   2.669   0.107   1.832
    8AAC    H12  341   2.687   0.067   1.776
    8AAC     C7  342   2.744   0.130   1.795
    8AAC     O3  343   2.771   0.102   1.836
    9AAC     O2  344   3.029   0.262   1.873
    9AAC     C4  345   3.075   0.296   1.874
    9AAC     C5  346   3.120   0.268   1.843
    9AAC     H8  347   3.126   0.228   1.858
    9AAC     H9  348   3.157   0.291   1.847
    9AAC    H10  349   3.109   0.266   1.801
    9AAC     H7  350   3.066   0.335   1.856
    9AAC     C6  351   3.090   0.305   1.934
    9AAC    H11  352   3.098   0.266   1.952
    9AAC    H12  353   3.126   0.329   1.937
    9AAC     C7  354   3.044   0.333   1.965
    9AAC     O3  355   3.058   0.330   2.021
   10AAD     O4  356   2.905   0.481   2.239
   10AAD     C8  357   2.861   0.512   2.219
   10AAD     C9  358   2.816   0.473   2.206
   10AAD    H14  359   2.810   0.445   2.240
   10AAD    H15  360   2.778   0.495   2.200
   10AAD    H16  361   2.825   0.450   2.170
   10AAD    H13  362   2.873   0.533   2.182
   10AAD    C10  363   2.846   0.552   2.262
   10AAD    H17  364   2.802   0.558   2.262
   10AAD    H18  365   2.857   0.537   2.301
   10AAD    C11  366   2.873   0.606   2.253
   10AAD     O5  367   2.880   0.631   2.304
   10AAD     O6  368   2.871   0.688   2.298
   10AAD    H19  369   2.877   0.699   2.335
    1AAB      C  370   2.799   0.352   3.031
    1AAB      O  371   2.751   0.339   3.078
    1AAB      H  372   2.764   0.326   3.100
    1AAB     H1  373   2.845   0.346   3.050
    1AAB     C1  374   2.793   0.409   3.011
    1AAB     H2  375   2.745   0.397   3.014
    1AAB     H3  376   2.826   0.418   3.045
    1AAB     H4  377   2.776   0.447   3.030
    1AAB     C2  378   2.814   0.420   2.947
    1AAB     H5  379   2.776   0.430   2.920
    1AAB     H6  380   2.828   0.392   2.935
    1AAB     C3  381   2.843   0.453   2.944
    1AAB     O1  382   2.840   0.471   2.894
    2AAC     O2  383   2.938   0.692   3.253
    2AAC     C4  384   2.934   0.727   3.298
    2AAC     C5  385   2.948   0.784   3.277
    2AAC     H8  386   2.987   0.784   3.258
    2AAC     H9  387   2.949   0.812   3.311
    2AAC    H10  388   2.917   0.798   3.249
    2AAC     H7  389   2.893   0.727   3.313
    2AAC     C6  390   2.972   0.708   3.342
    2AAC    H11  391   3.013   0.708   3.326
    2AAC    H12  392   2.971   0.735   3.376
    2AAC     C7  393   2.958   0.651   3.361
    2AAC     O3  394   3.001   0.633   3.395
    3AAC     O2  395   2.993   0.348   3.500
    3AAC     C4  396   2.982   0.315   3.545
    3AAC     C5  397   2.998   0.257   3.531
    3AAC     H8  398   2.980   0.245   3.493
    3AAC     H9  399   2.986   0.229   3.562
    3AAC    H10  400   3.042   0.255   3.526
    3AAC     H7  401   3.004   0.328   3.580
    3AAC     C6  402   2.921   0.319   3.556
    3AAC    H11  403   2.899   0.306   3.521
    3AAC    H12  404   2.910   0.293   3.589
    3AAC     C7  405   2.904   0.377   3.570
    3AAC     O3  406   2.847   0.379   3.570
    4AAC     O2  407   2.722   0.668   3.675
    4AAC     C4  408   2.667   0.676   3.688
    4AAC     C5  409   2.658   0.653   3.744
    4AAC     H8  410   2.672   0.611   3.746
    4AAC     H9  411   2.615   0.654   3.755
    4AAC    H10  412   2.680   0.676   3.774
    4AAC     H7  413   2.657   0.719   3.688
    4AAC     C6  414   2.633   0.647   3.645
    4AAC    H11  415   2.643   0.604   3.645
    4AAC    H12  416   2.590   0.651   3.655
    4AAC     C7  417   2.642   0.670   3.589
    4AAC     O3  418   2.617   0.636   3.551
    5AAC     O2  419   2.221   0.819   0.155
    5AAC     C4  420   2.197   0.818   0.103
    5AAC     C5  421   2.219   0.770   0.073
    5AAC     H8  422   2.263   0.771   0.073
    5AAC     H9  423   2.205   0.770   0.031
    5AAC    H10  424   2.206   0.733   0.092
    5AAC     H7  425   2.154   0.815   0.107
    5AAC     C6  426   2.211   0.872   0.075
    5AAC    H11  427   2.254   0.876   0.072
    5AAC    H12  428   2.194   0.872   0.035
    5AAC     C7  429   2.189   0.921   0.106
    5AAC     O3  430   2.211   0.968   0.083
    6AAC     O2  431   2.255   1.085   0.460
    6AAC     C4  432   2.264   1.037   0.491
    6AAC     C5  433   2.210   1.010   0.499
    6AAC     H8  434   2.181   1.039   0.517
    6AAC     H9  435   2.214   0.976   0.527
    6AAC    H10  436   2.193   0.996   0.461
    6AAC     H7  437   2.291   1.010   0.469
    6AAC     C6  438   2.291   1.055   0.544
    6AAC    H11  439   2.264   1.082   0.565
    6AAC    H12  440   2.297   1.019   0.569
    6AAC     C7  441   2.346   1.082   0.534
    6AAC     O3  442   2.362   1.105   0.584
    7AAC     O2  443   2.079   0.714   0.334
    7AAC     C4  444   2.096   0.659   0.325
    7AAC     C5  445   2.108   0.653   0.265
    7AAC     H8  446   2.073   0.666   0.241
    7AAC     H9  447   2.116   0.611   0.256
    7AAC    H10  448   2.143   0.677   0.254
    7AAC     H7  449   2.132   0.651   0.349
    7AAC     C6  450   2.049   0.623   0.344
    7AAC    H11  451   2.013   0.632   0.321
    7AAC    H12  452   2.060   0.581   0.336
    7AAC     C7  453   2.037   0.630   0.404
    7AAC     O3  454   1.988   0.602   0.415
    8AAC     O2  455   2.028   0.516   3.524
    8AAC     C4  456   2.030   0.488   3.574
    8AAC     C5  457   2.086   0.463   3.578
    8AAC     H8  458   2.095   0.438   3.543
    8AAC     H9  459   2.088   0.437   3.614
    8AAC    H10  460   2.117   0.494   3.582
    8AAC     H7  461   2.024   0.515   3.607
    8AAC     C6  462   1.985   0.445   3.572
    8AAC    H11  463   1.992   0.418   3.539
    8AAC    H12  464   1.986   0.422   3.609
    8AAC     C7  465   1.929   0.471   3.567
    8AAC     O3  466   1.892   0.429   3.557
    9AAC     O2  467   1.643   0.628   3.608
    9AAC     C4  468   1.613   0.673   3.628
    9AAC     C5  469   1.624   0.678   3.688
    9AAC     H8  470   1.615   0.639   3.708
    9AAC     H9  471   1.599   0.709   3.706
    9AAC    H10  472   1.666   0.687   3.696
    9AAC     H7  473   1.627   0.710   3.608
    9AAC     C6  474   1.553   0.664   3.615
    9AAC    H11  475   1.540   0.627   3.635
    9AAC    H12  476   1.530   0.697   3.631
    9AAC     C7  477   1.543   0.659   3.554
    9AAC     O3  478   1.490   0.641   3.547
   10AAD     O4  479   1.440   0.698   3.253
   10AAD     C8  480   1.398   0.706   3.215
   10AAD     C9  481   1.363   0.751   3.236
   10AAD    H14  482   1.387   0.785   3.250
   10AAD    H15  483   1.336   0.765   3.204
   10AAD    H16  484   1.338   0.737   3.269
   10AAD    H13  485   1.374   0.669   3.211
   10AAD    C10  486   1.424   0.719   3.162
   10AAD    H17  487   1.400   0.749   3.141
   10AAD    H18  488   1.463   0.738   3.169
   10AAD    C11  489   1.432   0.670   3.127
   10AAD     O5  490   1.477   0.679   3.094
   10AAD     O6  491   1.467   0.657   3.041
   10AAD    H19  492   1.501   0.665   3.024
    1AAB      C  493   0.586   0.982   1.852
    1AAB      O  494   0.525   0.996   1.880
    1AAB      H  495   0.529   1.001   1.908
    1AAB     H1  496   0.623   0.995   1.884
    1AAB     C1  497   0.591   1.013   1.801
    1AAB     H2  498   0.543   1.000   1.796
    1AAB     H3  499   0.613   1.045   1.828
    1AAB     H4  500   0.572   1.052   1.785
    1AAB     C2  501   0.631   0.984   1.753
    1AAB     H5  502   0.604   0.970   1.716
    1AAB     H6  503   0.645   0.956   1.766
    1AAB     C3  504   0.662   1.011   1.739
    1AAB     O1  505   0.676   0.993   1.691
    2AAC     O2  506   0.882   0.993   1.501
    2AAC     C4  507   0.898   0.976   1.449
    2AAC     C5  508   0.950   0.944   1.455
    2AAC     H8  509   0.980   0.968   1.477
    2AAC     H9  510   0.967   0.935   1.415
    2AAC    H10  511   0.943   0.907   1.476
    2AAC     H7  512   0.867   0.951   1.431
    2AAC     C6  513   0.906   1.028   1.415
    2AAC    H11  514   0.936   1.053   1.434
    2AAC    H12  515   0.920   1.017   1.375
    2AAC     C7  516   0.853   1.060   1.410
    2AAC     O3  517   0.866   1.110   1.387
    3AAC     O2  518   0.636   1.287   1.354
    3AAC     C4  519   0.608   1.337   1.354
    3AAC     C5  520   0.575   1.339   1.406
    3AAC     H8  521   0.549   1.303   1.409
    3AAC     H9  522   0.549   1.374   1.406
    3AAC    H10  523   0.601   1.340   1.441
    3AAC     H7  524   0.636   1.371   1.354
    3AAC     C6  525   0.573   1.340   1.303
    3AAC    H11  526   0.545   1.306   1.303
    3AAC    H12  527   0.550   1.377   1.303
    3AAC     C7  528   0.607   1.337   1.252
    3AAC     O3  529   0.571   1.331   1.208
    4AAC     O2  530   0.701   1.358   0.946
    4AAC     C4  531   0.731   1.354   0.897
    4AAC     C5  532   0.789   1.368   0.909
    4AAC     H8  533   0.792   1.407   0.928
    4AAC     H9  534   0.813   1.369   0.872
    4AAC    H10  535   0.807   1.338   0.936
    4AAC     H7  536   0.728   1.313   0.882
    4AAC     C6  537   0.705   1.392   0.856
    4AAC    H11  538   0.707   1.433   0.871
    4AAC    H12  539   0.728   1.391   0.818
    4AAC     C7  540   0.646   1.378   0.844
    4AAC     O3  541   0.624   1.421   0.814
    5AAC     O2  542   0.368   1.393   0.615
    5AAC     C4  543   0.320   1.407   0.641
    5AAC     C5  544   0.332   1.416   0.701
    5AAC     H8  545   0.353   1.381   0.718
    5AAC     H9  546   0.295   1.422   0.724
    5AAC    H10  547   0.358   1.451   0.706
    5AAC     H7  548   0.303   1.444   0.624
    5AAC     C6  549   0.280   1.360   0.633
    5AAC    H11  550   0.296   1.324   0.650
    5AAC    H12  551   0.242   1.369   0.654
    5AAC     C7  552   0.267   1.351   0.573
    5AAC     O3  553   0.238   1.303   0.568
    6AAC     O2  554   0.336   1.350   0.211
    6AAC     C4  555   0.366   1.310   0.184
    6AAC     C5  556   0.363   1.320   0.124
    6AAC     H8  557   0.320   1.323   0.111
    6AAC     H9  558   0.382   1.288   0.101
    6AAC    H10  559   0.383   1.358   0.114
    6AAC     H7  560   0.408   1.311   0.197
    6AAC     C6  561   0.342   1.255   0.200
    6AAC    H11  562   0.300   1.253   0.187
    6AAC    H12  563   0.363   1.223   0.179
    6AAC     C7  564   0.345   1.245   0.261
    6AAC     O3  565   0.314   1.198   0.272
    7AAC     O2  566   0.391   0.960   3.459
    7AAC     C4  567   0.412   0.959   3.512
    7AAC     C5  568   0.443   0.906   3.519
    7AAC     H8  569   0.417   0.872   3.509
    7AAC     H9  570   0.456   0.902   3.561
    7AAC    H10  571   0.478   0.905   3.493
    7AAC     H7  572   0.440   0.993   3.518
    7AAC     C6  573   0.364   0.964   3.551
    7AAC    H11  574   0.337   0.930   3.545
    7AAC    H12  575   0.379   0.962   3.592
    7AAC     C7  576   0.333   1.017   3.543
    7AAC     O3  577   0.285   1.014   3.574
    8AAC     O2  578   0.621   0.516   3.669
    8AAC     C4  579   0.565   0.526   3.665
    8AAC     C5  580   0.539   0.506   3.717
    8AAC     H8  581   0.549   0.464   3.724
    8AAC     H9  582   0.495   0.509   3.714
    8AAC    H10  583   0.552   0.530   3.751
    8AAC     H7  584   0.558   0.569   3.660
    8AAC     C6  585   0.544   0.496   3.615
    8AAC    H11  586   0.551   0.453   3.619
    8AAC    H12  587   0.501   0.502   3.611
    8AAC     C7  588   0.571   0.516   3.563
    8AAC     O3  589   0.556   0.480   3.521
    9AAC     O2  590   0.998   0.406   0.187
    9AAC     C4  591   0.981   0.421   0.135
    9AAC     C5  592   0.995   0.374   0.097
    9AAC     H8  593   1.038   0.364   0.101
    9AAC     H9  594   0.987   0.385   0.055
    9AAC    H10  595   0.972   0.339   0.107
    9AAC     H7  596   0.938   0.427   0.134
    9AAC     C6  597   1.010   0.473   0.120
    9AAC    H11  598   1.054   0.466   0.120
    9AAC    H12  599   0.999   0.484   0.079
    9AAC     C7  600   0.996   0.519   0.158
    9AAC     O3  601   1.032   0.563   0.146
   10AAD     O4  602   1.203   0.398   0.476
   10AAD     C8  603   1.251   0.378   0.499
   10AAD     C9  604   1.296   0.416   0.483
   10AAD    H14  605   1.283   0.458   0.489
   10AAD    H15  606   1.332   0.409   0.507
   10AAD    H16  607   1.307   0.411   0.441
   10AAD    H13  608   1.261   0.338   0.484
   10AAD    C10  609   1.243   0.377   0.559
   10AAD    H17  610   1.280   0.388   0.580
   10AAD    H18  611   1.213   0.406   0.571
   10AAD    C11  612   1.225   0.321   0.579
   10AAD     O5  613   1.193   0.329   0.625
   10AAD     O6  614   1.204   0.285   0.662
   10AAD    H19  615   1.180   0.295   0.691
    1AAB      C  616   3.651   1.375   0.408
    1AAB      O  617   3.710   1.407   0.394
    1AAB      H  618   3.728   1.387   0.383
    1AAB     H1  619   3.649   1.330   0.387
    1AAB     C1  620   3.605   1.409   0.388
    1AAB     H2  621   3.633   1.446   0.405
    1AAB     H3  622   3.608   1.381   0.349
    1AAB     H4  623   3.602   1.440   0.354
    1AAB     C2  624   3.546   1.402   0.422
    1AAB     H5  625   3.537   1.443   0.445
    1AAB     H6  626   3.550   1.379   0.446
    1AAB     C3  627   3.513   1.392   0.397
    1AAB     O1  628   3.469   1.408   0.422
    2AAC     O2  629   0.090   0.984   0.334
    2AAC     C4  630   0.051   0.981   0.292
    2AAC     C5  631  -0.004   0.984   0.319
    2AAC     H8  632  -0.008   0.953   0.350
    2AAC     H9  633  -0.036   0.978   0.289
    2AAC    H10  634  -0.010   1.023   0.337
    2AAC     H7  635   0.056   1.014   0.265
    2AAC     C6  636   0.059   0.928   0.262
    2AAC    H11  637   0.055   0.894   0.290
    2AAC    H12  638   0.029   0.923   0.231
    2AAC     C7  639   0.115   0.924   0.236
    2AAC     O3  640   0.122   0.871   0.217
    3AAC     O2  641   3.272   1.006   0.021
    3AAC     C4  642   3.295   0.955   0.034
    3AAC     C5  643   3.276   0.941   0.091
    3AAC     H8  644   3.285   0.973   0.119
    3AAC     H9  645   3.296   0.904   0.105
    3AAC    H10  646   3.232   0.934   0.091
    3AAC     H7  647   3.281   0.924   0.006
    3AAC     C6  648   3.356   0.961   0.030
    3AAC    H11  649   3.370   0.991   0.059
    3AAC    H12  650   3.375   0.923   0.042
    3AAC     C7  651   3.375   0.976  -0.027
    3AAC     O3  652   3.430   0.989  -0.024
    4AAC     O2  653   3.322   0.903   3.198
    4AAC     C4  654   3.332   0.944   3.237
    4AAC     C5  655   3.387   0.968   3.225
    4AAC     H8  656   3.418   0.937   3.222
    4AAC     H9  657   3.399   0.996   3.256
    4AAC    H10  658   3.386   0.990   3.186
    4AAC     H7  659   3.302   0.975   3.235
    4AAC     C6  660   3.330   0.917   3.292
    4AAC    H11  661   3.361   0.885   3.295
    4AAC    H12  662   3.339   0.946   3.323
    4AAC     C7  663   3.275   0.892   3.304
    4AAC     O3  664   3.280   0.860   3.352
    5AAC     O2  665   3.075   1.229   3.158
    5AAC     C4  666   3.031   1.254   3.131
    5AAC     C5  667   3.042   1.251   3.071
    5AAC     H8  668   3.081   1.269   3.062
    5AAC     H9  669   3.012   1.273   3.048
    5AAC    H10  670   3.042   1.209   3.057
    5AAC     H7  671   2.994   1.232   3.140
    5AAC     C6  672   3.026   1.312   3.152
    5AAC    H11  673   3.063   1.334   3.143
    5AAC    H12  674   2.993   1.332   3.130
    5AAC     C7  675   3.015   1.314   3.212
    5AAC     O3  676   3.020   1.369   3.229
    6AAC     O2  677   2.819   1.479   3.427
    6AAC     C4  678   2.821   1.526   3.460
    6AAC     C5  679   2.878   1.531   3.483
    6AAC     H8  680   2.889   1.493   3.503
    6AAC     H9  681   2.880   1.563   3.512
    6AAC    H10  682   2.907   1.538   3.451
    6AAC     H7  683   2.812   1.562   3.436
    6AAC     C6  684   2.778   1.520   3.504
    6AAC    H11  685   2.787   1.484   3.528
    6AAC    H12  686   2.780   1.554   3.531
    6AAC     C7  687   2.721   1.515   3.481
    6AAC     O3  688   2.686   1.500   3.524
    7AAC     O2  689   2.410   1.550   3.599
    7AAC     C4  690   2.381   1.544   3.648
    7AAC     C5  691   2.396   1.490   3.672
    7AAC     H8  692   2.389   1.458   3.643
    7AAC     H9  693   2.371   1.482   3.708
    7AAC    H10  694   2.438   1.489   3.684
    7AAC     H7  695   2.392   1.576   3.676
    7AAC     C6  696   2.321   1.549   3.635
    7AAC    H11  697   2.310   1.517   3.607
    7AAC    H12  698   2.297   1.543   3.671
    7AAC     C7  699   2.306   1.603   3.610
    7AAC     O3  700   2.253   1.600   3.590
    8AAC     O2  701   2.008   1.758   3.588
    8AAC     C4  702   1.962   1.784   3.567
    8AAC     C5  703   1.938   1.819   3.611
    8AAC     H8  704   1.930   1.795   3.647
    8AAC     H9  705   1.900   1.836   3.598
    8AAC    H10  706   1.965   1.851   3.621
    8AAC     H7  707   1.973   1.809   3.533
    8AAC     C6  708   1.923   1.739   3.548
    8AAC    H11  709   1.912   1.714   3.582
    8AAC    H12  710   1.887   1.758   3.532
    8AAC     C7  711   1.948   1.704   3.503
    8AAC     O3  712   1.914   1.659   3.495
    9AAC     O2  713   2.043   1.458   3.321
    9AAC     C4  714   2.039   1.409   3.291
    9AAC     C5  715   2.050   1.362   3.329
    9AAC     H8  716   2.088   1.368   3.350
    9AAC     H9  717   2.051   1.325   3.307
    9AAC    H10  718   2.018   1.360   3.359
    9AAC     H7  719   1.999   1.405   3.274
    9AAC     C6  720   2.080   1.412   3.245
    9AAC    H11  721   2.121   1.416   3.262
    9AAC    H12  722   2.080   1.375   3.222
    9AAC     C7  723   2.070   1.460   3.207
    9AAC     O3  724   2.115   1.464   3.172
   10AAD     O4  725   2.092   1.663   2.964
   10AAD     C8  726   2.101   1.715   2.941
   10AAD     C9  727   2.151   1.737   2.967
   10AAD    H14  728   2.183   1.707   2.968
   10AAD    H15  729   2.166   1.772   2.945
   10AAD    H16  730   2.143   1.750   3.008
   10AAD    H13  731   2.067   1.741   2.950
   10AAD    C10  732   2.107   1.708   2.881
   10AAD    H17  733   2.137   1.736   2.866
   10AAD    H18  734   2.121   1.667   2.873
   10AAD    C11  735   2.054   1.717   2.852
   10AAD     O5  736   2.055   1.684   2.805
   10AAD     O6  737   2.029   1.714   2.762
   10AAD    H19  738   2.032   1.688   2.733
    1AAB      C  739   1.984   0.980   3.251
    1AAB      O  740   2.006   0.920   3.276
    1AAB      H  741   1.984   0.908   3.290
    1AAB     H1  742   1.935   0.984   3.255
    1AAB     C1  743   2.002   0.986   3.194
    1AAB     H2  744   2.043   0.964   3.211
    1AAB     H3  745   1.958   0.968   3.185
    1AAB     H4  746   2.011   0.955   3.161
    1AAB     C2  747   2.012   1.050   3.172
    1AAB     H5  748   2.058   1.056   3.162
    1AAB     H6  749   2.004   1.071   3.196
    1AAB     C3  750   1.989   1.059   3.136
    1AAB     O1  751   2.014   1.099   3.112
    2AAC     O2  752   1.884   1.295   2.811
    2AAC     C4  753   1.933   1.298   2.840
    2AAC     C5  754   1.920   1.285   2.898
    2AAC     H8  755   1.889   1.312   2.913
    2AAC     H9  756   1.956   1.291   2.923
    2AAC    H10  757   1.907   1.244   2.903
    2AAC     H7  758   1.961   1.268   2.824
    2AAC     C6  759   1.956   1.355   2.832
    2AAC    H11  760   1.928   1.384   2.847
    2AAC    H12  761   1.993   1.358   2.855
    2AAC     C7  762   1.968   1.367   2.773
    2AAC     O3  763   1.981   1.423   2.769
    3AAC     O2  764   2.373   1.494   2.769
    3AAC     C4  765   2.400   1.446   2.786
    3AAC     C5  766   2.357   1.406   2.802
    3AAC     H8  767   2.330   1.423   2.832
    3AAC     H9  768   2.375   1.370   2.819
    3AAC    H10  769   2.333   1.394   2.767
    3AAC     H7  770   2.424   1.430   2.752
    3AAC     C6  771   2.438   1.461   2.833
    3AAC    H11  772   2.414   1.477   2.866
    3AAC    H12  773   2.457   1.424   2.847
    3AAC     C7  774   2.481   1.502   2.816
    3AAC     O3  775   2.507   1.519   2.864
    4AAC     O2  776   2.819   1.566   2.850
    4AAC     C4  777   2.852   1.528   2.876
    4AAC     C5  778   2.843   1.533   2.937
    4AAC     H8  779   2.848   1.575   2.950
    4AAC     H9  780   2.871   1.508   2.959
    4AAC    H10  781   2.802   1.521   2.947
    4AAC     H7  782   2.842   1.488   2.863
    4AAC     C6  783   2.911   1.541   2.860
    4AAC    H11  784   2.921   1.582   2.873
    4AAC    H12  785   2.938   1.514   2.881
    4AAC     C7  786   2.920   1.536   2.799
    4AAC     O3  787   2.972   1.558   2.788
    5AAC     O2  788   3.126   1.259   2.682
    5AAC     C4  789   3.166   1.247   2.644
    5AAC     C5  790   3.172   1.186   2.643
    5AAC     H8  791   3.179   1.170   2.683
    5AAC     H9  792   3.206   1.174   2.617
    5AAC    H10  793   3.135   1.167   2.626
    5AAC     H7  794   3.155   1.262   2.605
    5AAC     C6  795   3.218   1.275   2.663
    5AAC    H11  796   3.229   1.260   2.703
    5AAC    H12  797   3.251   1.264   2.636
    5AAC     C7  798   3.212   1.336   2.665
    5AAC     O3  799   3.258   1.357   2.691
    6AAC     O2  800   3.124   1.677   2.716
    6AAC     C4  801   3.131   1.702   2.767
    6AAC     C5  802   3.140   1.657   2.808
    6AAC     H8  803   3.107   1.628   2.806
    6AAC     H9  804   3.141   1.674   2.849
    6AAC    H10  805   3.178   1.636   2.801
    6AAC     H7  806   3.167   1.728   2.766
    6AAC     C6  807   3.081   1.735   2.778
    6AAC    H11  808   3.046   1.709   2.779
    6AAC    H12  809   3.084   1.754   2.818
    6AAC     C7  810   3.072   1.780   2.736
    6AAC     O3  811   3.021   1.802   2.744
    7AAC     O2  812   2.909   2.045   2.644
    7AAC     C4  813   2.874   2.080   2.613
    7AAC     C5  814   2.896   2.137   2.619
    7AAC     H8  815   2.900   2.148   2.662
    7AAC     H9  816   2.869   2.166   2.600
    7AAC    H10  817   2.935   2.140   2.600
    7AAC     H7  818   2.875   2.068   2.571
    7AAC     C6  819   2.817   2.074   2.636
    7AAC    H11  820   2.817   2.085   2.678
    7AAC    H12  821   2.790   2.101   2.615
    7AAC     C7  822   2.796   2.016   2.631
    7AAC     O3  823   2.747   2.012   2.660
    8AAC     O2  824   2.670   1.710   2.671
    8AAC     C4  825   2.672   1.660   2.644
    8AAC     C5  826   2.680   1.672   2.584
    8AAC     H8  827   2.649   1.700   2.569
    8AAC     H9  828   2.677   1.635   2.560
    8AAC    H10  829   2.720   1.690   2.577
    8AAC     H7  830   2.705   1.636   2.658
    8AAC     C6  831   2.618   1.631   2.655
    8AAC    H11  832   2.585   1.655   2.640
    8AAC    H12  833   2.618   1.593   2.633
    8AAC     C7  834   2.610   1.620   2.715
    8AAC     O3  835   2.556   1.601   2.722
    9AAC     O2  836   2.541   1.575   3.030
    9AAC     C4  837   2.559   1.572   3.084
    9AAC     C5  838   2.608   1.535   3.086
    9AAC     H8  839   2.598   1.496   3.067
    9AAC     H9  840   2.621   1.528   3.127
    9AAC    H10  841   2.641   1.553   3.063
    9AAC     H7  842   2.570   1.612   3.098
    9AAC     C6  843   2.512   1.551   3.119
    9AAC    H11  844   2.501   1.511   3.104
    9AAC    H12  845   2.525   1.547   3.160
    9AAC     C7  846   2.463   1.588   3.117
    9AAC     O3  847   2.419   1.560   3.142
   10AAD     O4  848   2.190   1.701   3.237
   10AAD     C8  849   2.134   1.712   3.231
   10AAD     C9  850   2.107   1.660   3.214
   10AAD    H14  851   2.121   1.627   3.240
   10AAD    H15  852   2.064   1.663   3.218
   10AAD    H16  853   2.117   1.650   3.173
   10AAD    H13  854   2.128   1.742   3.200
   10AAD    C10  855   2.114   1.732   3.285
   10AAD    H17  856   2.073   1.718   3.291
   10AAD    H18  857   2.139   1.717   3.317
   10AAD    C11  858   2.114   1.794   3.287
   10AAD     O5  859   2.122   1.809   3.342
   10AAD     O6  860   2.089   1.856   3.353
   10AAD    H19  861   2.098   1.861   3.390
    1AAB      C  862   0.619   3.652   3.016
    1AAB      O  863   0.598   3.709   2.986
    1AAB      H  864   0.621   3.727   2.985
    1AAB     H1  865   0.669   3.649   3.019
    1AAB     C1  866   0.598   3.604   2.985
    1AAB     H2  867   0.558   3.633   2.981
    1AAB     H3  868   0.641   3.606   2.964
    1AAB     H4  869   0.587   3.599   2.941
    1AAB     C2  870   0.586   3.548   3.021
    1AAB     H5  871   0.539   3.539   3.022
    1AAB     H6  872   0.596   3.552   3.053
    1AAB     C3  873   0.607   3.513   3.005
    1AAB     O1  874   0.580   3.470   3.022
    2AAC     O2  875   0.812   0.245   3.321
    2AAC     C4  876   0.812   0.193   3.345
    2AAC     C5  877   0.863   0.188   3.378
    2AAC     H8  878   0.898   0.197   3.354
    2AAC     H9  879   0.866   0.147   3.394
    2AAC    H10  880   0.862   0.215   3.412
    2AAC     H7  881   0.777   0.189   3.370
    2AAC     C6  882   0.809   0.152   3.298
    2AAC    H11  883   0.844   0.157   3.273
    2AAC    H12  884   0.811   0.112   3.315
    2AAC     C7  885   0.758   0.158   3.264
    2AAC     O3  886   0.764   0.125   3.218
    3AAC     O2  887   0.467   0.389   3.312
    3AAC     C4  888   0.442   0.440   3.318
    3AAC     C5  889   0.393   0.433   3.354
    3AAC     H8  890   0.366   0.401   3.338
    3AAC     H9  891   0.370   0.470   3.356
    3AAC    H10  892   0.405   0.421   3.394
    3AAC     H7  893   0.470   0.468   3.337
    3AAC     C6  894   0.427   0.460   3.261
    3AAC    H11  895   0.400   0.432   3.242
    3AAC    H12  896   0.407   0.499   3.265
    3AAC     C7  897   0.477   0.467   3.225
    3AAC     O3  898   0.459   0.476   3.172
    4AAC     O2  899   0.723   0.427   3.010
    4AAC     C4  900   0.743   0.394   2.968
    4AAC     C5  901   0.760   0.341   2.993
    4AAC     H8  902   0.788   0.347   3.026
    4AAC     H9  903   0.779   0.315   2.962
    4AAC    H10  904   0.725   0.319   3.008
    4AAC     H7  905   0.711   0.387   2.938
    4AAC     C6  906   0.790   0.424   2.941
    4AAC    H11  907   0.821   0.431   2.971
    4AAC    H12  908   0.807   0.399   2.910
    4AAC     C7  909   0.772   0.478   2.917
    4AAC     O3  910   0.819   0.506   2.902
    5AAC     O2  911   0.805   0.782   2.790
    5AAC     C4  912   0.832   0.816   2.754
    5AAC     C5  913   0.812   0.873   2.764
    5AAC     H8  914   0.768   0.875   2.762
    5AAC     H9  915   0.828   0.901   2.735
    5AAC    H10  916   0.824   0.887   2.804
    5AAC     H7  917   0.875   0.815   2.761
    5AAC     C6  918   0.820   0.797   2.696
    5AAC    H11  919   0.776   0.799   2.689
    5AAC    H12  920   0.839   0.824   2.667
    5AAC     C7  921   0.840   0.740   2.686
    5AAC     O3  922   0.819   0.723   2.636
    6AAC     O2  923   0.863   0.416   2.659
    6AAC     C4  924   0.877   0.366   2.636
    6AAC     C5  925   0.836   0.354   2.592
    6AAC     H8  926   0.795   0.356   2.608
    6AAC     H9  927   0.842   0.314   2.576
    6AAC    H10  928   0.840   0.383   2.559
    6AAC     H7  929   0.917   0.368   2.618
    6AAC     C6  930   0.876   0.323   2.681
    6AAC    H11  931   0.836   0.321   2.699
    6AAC    H12  932   0.885   0.284   2.664
    6AAC     C7  933   0.917   0.336   2.726
    6AAC     O3  934   0.907   0.300   2.769
    7AAC     O2  935   1.155   0.311   3.004
    7AAC     C4  936   1.112   0.306   3.041
    7AAC     C5  937   1.068   0.346   3.025
    7AAC     H8  938   1.085   0.386   3.021
    7AAC     H9  939   1.037   0.346   3.056
    7AAC    H10  940   1.050   0.334   2.987
    7AAC     H7  941   1.096   0.265   3.041
    7AAC     C6  942   1.136   0.318   3.098
    7AAC    H11  943   1.152   0.358   3.098
    7AAC    H12  944   1.103   0.316   3.127
    7AAC     C7  945   1.180   0.278   3.113
    7AAC     O3  946   1.205   0.297   3.161
    8AAC     O2  947   1.221   0.273   3.464
    8AAC     C4  948   1.241   0.284   3.517
    8AAC     C5  949   1.252   0.230   3.544
    8AAC     H8  950   1.217   0.204   3.542
    8AAC     H9  951   1.263   0.236   3.586
    8AAC    H10  952   1.285   0.209   3.523
    8AAC     H7  953   1.278   0.307   3.515
    8AAC     C6  954   1.197   0.316   3.546
    8AAC    H11  955   1.160   0.293   3.548
    8AAC    H12  956   1.210   0.324   3.587
    8AAC     C7  957   1.186   0.370   3.519
    8AAC     O3  958   1.139   0.393   3.543
    9AAC     O2  959   1.059   0.665   3.443
    9AAC     C4  960   1.007   0.688   3.445
    9AAC     C5  961   0.968   0.646   3.423
    9AAC     H8  962   0.981   0.631   3.384
    9AAC     H9  963   0.927   0.663   3.420
    9AAC    H10  964   0.966   0.611   3.451
    9AAC     H7  965   0.996   0.698   3.486
    9AAC     C6  966   1.007   0.739   3.410
    9AAC    H11  967   1.018   0.729   3.369
    9AAC    H12  968   0.967   0.757   3.409
    9AAC     C7  969   1.047   0.781   3.432
    9AAC     O3  970   1.052   0.822   3.392
   10AAD     O4  971   1.121   1.094   3.417
   10AAD     C8  972   1.159   1.136   3.410
   10AAD     C9  973   1.185   1.127   3.356
   10AAD    H14  974   1.155   1.119   3.325
   10AAD    H15  975   1.207   1.163   3.343
   10AAD    H16  976   1.213   1.094   3.358
   10AAD    H13  977   1.189   1.135   3.441
   10AAD    C10  978   1.128   1.189   3.413
   10AAD    H17  979   1.146   1.217   3.384
   10AAD    H18  980   1.087   1.182   3.401
   10AAD    C11  981   1.130   1.213   3.469
   10AAD     O5  982   1.082   1.244   3.475
   10AAD     O6  983   1.095   1.292   3.506
   10AAD    H19  984   1.059   1.308   3.507
    1AAB      C  985   1.177   0.570   1.557
    1AAB      O  986   1.192   0.582   1.492
    1AAB      H  987   1.168   0.579   1.476
    1AAB     H1  988   1.127   0.570   1.564
    1AAB     C1  989   1.202   0.613   1.591
    1AAB     H2  990   1.240   0.608   1.560
    1AAB     H3  991   1.159   0.634   1.587
    1AAB     H4  992   1.214   0.657   1.583
    1AAB     C2  993   1.218   0.594   1.655
    1AAB     H5  994   1.265   0.595   1.660
    1AAB     H6  995   1.208   0.563   1.660
    1AAB     C3  996   1.200   0.620   1.685
    1AAB     O1  997   1.231   0.615   1.729
    2AAC     O2  998   1.240   0.524   2.009
    2AAC     C4  999   1.237   0.536   2.064
    2AAC     C5 1000   1.253   0.485   2.095
    2AAC     H8 1001   1.228   0.451   2.083
    2AAC     H9 1002   1.248   0.491   2.138
    2AAC    H10 1003   1.295   0.475   2.088
    2AAC     H7 1004   1.266   0.568   2.074
    2AAC     C6 1005   1.180   0.555   2.077
    2AAC    H11 1006   1.152   0.523   2.068
    2AAC    H12 1007   1.176   0.563   2.120
    2AAC     C7 1008   1.165   0.606   2.046
    2AAC     O3 1009   1.109   0.614   2.053
    3AAC     O2 1010   1.031   0.793   1.814
    3AAC     C4 1011   1.009   0.842   1.794
    3AAC     C5 1012   0.956   0.852   1.825
    3AAC     H8 1013   0.930   0.816   1.821
    3AAC     H9 1014   0.935   0.886   1.808
    3AAC    H10 1015   0.964   0.859   1.867
    3AAC     H7 1016   1.036   0.875   1.802
    3AAC     C6 1017   1.000   0.835   1.733
    3AAC    H11 1018   0.972   0.802   1.726
    3AAC    H12 1019   0.981   0.872   1.717
    3AAC     C7 1020   1.053   0.825   1.703
    3AAC     O3 1021   1.040   0.811   1.649
    4AAC     O2 1022   1.223   0.826   1.423
    4AAC     C4 1023   1.264   0.847   1.388
    4AAC     C5 1024   1.252   0.826   1.332
    4AAC     H8 1025   1.249   0.782   1.332
    4AAC     H9 1026   1.285   0.837   1.304
    4AAC    H10 1027   1.215   0.843   1.317
    4AAC     H7 1028   1.263   0.891   1.388
    4AAC     C6 1029   1.319   0.828   1.410
    4AAC    H11 1030   1.320   0.784   1.410
    4AAC    H12 1031   1.350   0.841   1.383
    4AAC     C7 1032   1.330   0.848   1.467
    4AAC     O3 1033   1.376   0.821   1.487
    5AAC     O2 1034   1.424   0.892   1.781
    5AAC     C4 1035   1.405   0.879   1.833
    5AAC     C5 1036   1.345   0.889   1.834
    5AAC     H8 1037   1.336   0.930   1.820
    5AAC     H9 1038   1.329   0.884   1.874
    5AAC    H10 1039   1.324   0.861   1.807
    5AAC     H7 1040   1.413   0.837   1.842
    5AAC     C6 1041   1.435   0.915   1.874
    5AAC    H11 1042   1.428   0.957   1.865
    5AAC    H12 1043   1.420   0.907   1.914
    5AAC     C7 1044   1.496   0.905   1.873
    5AAC     O3 1045   1.521   0.945   1.904
    6AAC     O2 1046   1.764   0.964   2.082
    6AAC     C4 1047   1.816   0.952   2.061
    6AAC     C5 1048   1.812   0.898   2.031
    6AAC     H8 1049   1.795   0.867   2.058
    6AAC     H9 1050   1.852   0.885   2.018
    6AAC    H10 1051   1.786   0.902   1.996
    6AAC     H7 1052   1.829   0.983   2.033
    6AAC     C6 1053   1.856   0.950   2.108
    6AAC    H11 1054   1.843   0.919   2.137
    6AAC    H12 1055   1.896   0.939   2.094
    6AAC     C7 1056   1.859   1.004   2.138
    6AAC     O3 1057   1.889   0.995   2.186
    7AAC     O2 1058   2.119   1.135   2.304
    7AAC     C4 1059   2.172   1.141   2.322
    7AAC     C5 1060   2.173   1.129   2.382
    7AAC     H8 1061   2.143   1.153   2.403
    7AAC     H9 1062   2.212   1.137   2.399
    7AAC    H10 1063   2.163   1.086   2.389
    7AAC     H7 1064   2.199   1.112   2.301
    7AAC     C6 1065   2.190   1.199   2.309
    7AAC    H11 1066   2.164   1.227   2.330
    7AAC    H12 1067   2.231   1.205   2.325
    7AAC     C7 1068   2.189   1.210   2.249
    7AAC     O3 1069   2.197   1.267   2.242
    8AAC     O2 1070   2.162   1.172   1.881
    8AAC     C4 1071   2.108   1.160   1.865
    8AAC     C5 1072   2.081   1.131   1.912
    8AAC     H8 1073   2.105   1.096   1.924
    8AAC     H9 1074   2.041   1.117   1.900
    8AAC    H10 1075   2.077   1.158   1.946
    8AAC     H7 1076   2.086   1.197   1.856
    8AAC     C6 1077   2.111   1.125   1.814
    8AAC    H11 1078   2.133   1.088   1.823
    8AAC    H12 1079   2.071   1.114   1.802
    8AAC     C7 1080   2.139   1.154   1.768
    8AAC     O3 1081   2.148   1.116   1.726
    9AAC     O2 1082   2.044   1.154   1.443
    9AAC     C4 1083   2.008   1.157   1.399
    9AAC     C5 1084   1.976   1.104   1.398
    9AAC     H8 1085   2.003   1.070   1.398
    9AAC     H9 1086   1.951   1.103   1.362
    9AAC    H10 1087   1.950   1.101   1.433
    9AAC     H7 1088   1.981   1.190   1.404
    9AAC     C6 1089   2.042   1.165   1.348
    9AAC    H11 1090   2.070   1.131   1.343
    9AAC    H12 1091   2.016   1.165   1.313
    9AAC     C7 1092   2.075   1.217   1.350
    9AAC     O3 1093   2.111   1.216   1.306
   10AAD     O4 1094   2.259   1.452   1.243
   10AAD     C8 1095   2.272   1.491   1.203
   10AAD     C9 1096   2.222   1.524   1.193
   10AAD    H14 1097   2.204   1.536   1.231
   10AAD    H15 1098   2.231   1.559   1.169
   10AAD    H16 1099   2.192   1.500   1.171
   10AAD    H13 1100   2.284   1.470   1.166
   10AAD    C10 1101   2.318   1.524   1.223
   10AAD    H17 1102   2.313   1.566   1.210
   10AAD    H18 1103   2.318   1.525   1.267
   10AAD    C11 1104   2.373   1.503   1.204
   10AAD     O5 1105   2.411   1.517   1.244
   10AAD     O6 1106   2.461   1.531   1.217
   10AAD    H19 1107   2.483   1.540   1.248
    1AAB      C 1108  -0.045  -0.034   0.610
    1AAB      O 1109  -0.109  -0.010   0.611
    1AAB      H 1110  -0.123  -0.024   0.632
    1AAB     H1 1111  -0.035  -0.061   0.651
    1AAB     C1 1112  -0.007   0.013   0.606
    1AAB     H2 1113  -0.042   0.030   0.575
    1AAB     H3 1114  -0.005   0.008   0.654
    1AAB     H4 1115  -0.010   0.057   0.619
    1AAB     C2 1116   0.052  -0.000   0.575
    1AAB     H5 1117   0.054   0.024   0.534
    1AAB     H6 1118   0.054  -0.032   0.567
    1AAB     C3 1119   0.087   0.011   0.599
    1AAB     O1 1120   0.128   0.019   0.565
    2AAC     O2 1121   3.393   0.418   0.532
    2AAC     C4 1122   3.440   0.396   0.557
    2AAC     C5 1123   3.429   0.391   0.617
    2AAC     H8 1124   3.415   0.429   0.633
    2AAC     H9 1125   3.465   0.379   0.639
    2AAC    H10 1126   3.398   0.361   0.624
    2AAC     H7 1127   3.450   0.357   0.540
    2AAC     C6 1128   3.487   0.436   0.545
    2AAC    H11 1129   3.477   0.475   0.562
    2AAC    H12 1130   3.523   0.422   0.565
    2AAC     C7 1131   3.498   0.442   0.485
    2AAC     O3 1132   3.534   0.485   0.478
    3AAC     O2 1133   3.135   0.012   0.670
    3AAC     C4 1134   3.170   0.006   0.625
    3AAC     C5 1135   3.192  -0.052   0.627
    3AAC     H8 1136   3.210  -0.060   0.666
    3AAC     H9 1137   3.223  -0.057   0.596
    3AAC    H10 1138   3.160  -0.080   0.620
    3AAC     H7 1139   3.149   0.012   0.588
    3AAC     C6 1140   3.215   0.048   0.631
    3AAC    H11 1141   3.237   0.042   0.668
    3AAC    H12 1142   3.244   0.043   0.598
    3AAC     C7 1143   3.193   0.106   0.630
    3AAC     O3 1144   3.235   0.141   0.645
    4AAC     O2 1145   2.850   3.583   0.878
    4AAC     C4 1146   2.808   3.619   0.863
    4AAC     C5 1147   2.832   3.675   0.862
    4AAC     H8 1148   2.852   3.685   0.900
    4AAC     H9 1149   2.800   3.705   0.855
    4AAC    H10 1150   2.861   3.678   0.829
    4AAC     H7 1151   2.792   3.608   0.824
    4AAC     C6 1152   2.763   3.613   0.906
    4AAC    H11 1153   2.779   3.624   0.945
    4AAC    H12 1154   2.731   3.641   0.896
    4AAC     C7 1155   2.740   3.556   0.908
    4AAC     O3 1156   2.706   3.553   0.953
    5AAC     O2 1157   2.355   0.097   1.018
    5AAC     C4 1158   2.323   0.056   0.993
    5AAC     C5 1159   2.347   0.002   1.008
    5AAC     H8 1160   2.390   0.001   0.998
    5AAC     H9 1161   2.326  -0.030   0.987
    5AAC    H10 1162   2.343  -0.005   1.052
    5AAC     H7 1163   2.282   0.059   1.008
    5AAC     C6 1164   2.324   0.066   0.932
    5AAC    H11 1165   2.365   0.064   0.918
    5AAC    H12 1166   2.301   0.035   0.912
    5AAC     C7 1167   2.300   0.121   0.917
    5AAC     O3 1168   2.311   0.131   0.862
    6AAC     O2 1169   2.335   3.202   1.024
    6AAC     C4 1170   2.340   3.255   1.046
    6AAC     C5 1171   2.332   3.251   1.106
    6AAC     H8 1172   2.294   3.231   1.116
    6AAC     H9 1173   2.332   3.291   1.124
    6AAC    H10 1174   2.365   3.228   1.125
    6AAC     H7 1175   2.380   3.271   1.037
    6AAC     C6 1176   2.298   3.291   1.018
    6AAC    H11 1177   2.258   3.275   1.027
    6AAC    H12 1178   2.300   3.331   1.035
    6AAC     C7 1179   2.306   3.294   0.957
    6AAC     O3 1180   2.260   3.320   0.935
    7AAC     O2 1181   1.905   3.283   1.069
    7AAC     C4 1182   1.850   3.283   1.053
    7AAC     C5 1183   1.842   3.331   1.015
    7AAC     H8 1184   1.856   3.368   1.034
    7AAC     H9 1185   1.799   3.336   1.006
    7AAC    H10 1186   1.864   3.325   0.978
    7AAC     H7 1187   1.840   3.246   1.032
    7AAC     C6 1188   1.816   3.288   1.105
    7AAC    H11 1189   1.826   3.325   1.126
    7AAC    H12 1190   1.774   3.290   1.094
    7AAC     C7 1191   1.826   3.240   1.143
    7AAC     O3 1192   1.800   3.252   1.193
    8AAC     O2 1193   1.683   3.057   1.382
    8AAC     C4 1194   1.697   3.050   1.437
    8AAC     C5 1195   1.757   3.040   1.440
    8AAC     H8 1196   1.768   3.006   1.414
    8AAC     H9 1197   1.768   3.030   1.481
    8AAC    H10 1198   1.780   3.075   1.428
    8AAC     H7 1199   1.687   3.087   1.459
    8AAC     C6 1200   1.663   3.003   1.458
    8AAC    H11 1201   1.673   2.967   1.436
    8AAC    H12 1202   1.673   2.996   1.500
    8AAC     C7 1203   1.602   3.014   1.454
    8AAC     O3 1204   1.575   2.965   1.466
    9AAC     O2 1205   1.317   2.916   1.576
    9AAC     C4 1206   1.278   2.884   1.603
    9AAC     C5 1207   1.238   2.864   1.562
    9AAC     H8 1208   1.222   2.898   1.538
    9AAC     H9 1209   1.205   2.843   1.581
    9AAC    H10 1210   1.258   2.836   1.534
    9AAC     H7 1211   1.297   2.850   1.623
    9AAC     C6 1212   1.252   2.921   1.646
    9AAC    H11 1213   1.232   2.955   1.626
    9AAC    H12 1214   1.220   2.898   1.667
    9AAC     C7 1215   1.292   2.942   1.688
    9AAC     O3 1216   1.266   2.981   1.719
   10AAD     O4 1217   1.419   3.102   1.931
   10AAD     C8 1218   1.450   3.146   1.950
   10AAD     C9 1219   1.436   3.194   1.916
   10AAD    H14 1220   1.392   3.198   1.911
   10AAD    H15 1221   1.451   3.231   1.934
   10AAD    H16 1222   1.453   3.190   1.876
   10AAD    H13 1223   1.493   3.137   1.946
   10AAD    C10 1224   1.436   3.155   2.009
   10AAD    H17 1225   1.436   3.198   2.018
   10AAD    H18 1226   1.395   3.140   2.016
   10AAD    C11 1227   1.475   3.126   2.046
   10AAD     O5 1228   1.446   3.112   2.094
   10AAD     O6 1229   1.482   3.119   2.139
   10AAD    H19 1230   1.458   3.108   2.168
    1AAB      C 1231   1.946   3.419   2.196
    1AAB      O 1232   1.926   3.479   2.221
    1AAB      H 1233   1.900   3.476   2.232
    1AAB     H1 1234   1.916   3.382   2.212
    1AAB     C1 1235   2.003   3.408   2.213
    1AAB     H2 1236   2.008   3.456   2.205
    1AAB     H3 1237   1.981   3.383   2.249
    1AAB     H4 1238   2.027   3.421   2.250
    1AAB     C2 1239   2.040   3.369   2.171
    1AAB     H5 1240   2.075   3.395   2.152
    1AAB     H6 1241   2.021   3.358   2.146
    1AAB     C3 1242   2.057   3.334   2.191
    1AAB     O1 1243   2.100   3.320   2.162
    2AAC     O2 1244   2.196   3.057   2.080
    2AAC     C4 1245   2.244   3.026   2.085
    2AAC     C5 1246   2.292   3.064   2.082
    2AAC     H8 1247   2.289   3.089   2.046
    2AAC     H9 1248   2.329   3.041   2.081
    2AAC    H10 1249   2.292   3.090   2.117
    2AAC     H7 1250   2.244   3.005   2.123
    2AAC     C6 1251   2.243   2.984   2.039
    2AAC    H11 1252   2.243   3.006   2.000
    2AAC    H12 1253   2.280   2.961   2.040
    2AAC     C7 1254   2.195   2.947   2.042
    2AAC     O3 1255   2.193   2.917   1.993
    3AAC     O2 1256   1.951   2.745   1.989
    3AAC     C4 1257   1.914   2.715   1.958
    3AAC     C5 1258   1.858   2.739   1.966
    3AAC     H8 1259   1.849   2.741   2.009
    3AAC     H9 1260   1.828   2.714   1.946
    3AAC    H10 1261   1.856   2.780   1.950
    3AAC     H7 1262   1.924   2.718   1.915
    3AAC     C6 1263   1.918   2.656   1.976
    3AAC    H11 1264   1.907   2.654   2.019
    3AAC    H12 1265   1.888   2.632   1.954
    3AAC     C7 1266   1.974   2.632   1.968
    3AAC     O3 1267   1.976   2.582   1.995
    4AAC     O2 1268   2.227   2.376   2.009
    4AAC     C4 1269   2.271   2.390   1.976
    4AAC     C5 1270   2.255   2.441   1.944
    4AAC     H8 1271   2.217   2.434   1.923
    4AAC     H9 1272   2.286   2.451   1.915
    4AAC    H10 1273   2.250   2.475   1.971
    4AAC     H7 1274   2.306   2.399   2.000
    4AAC     C6 1275   2.284   2.342   1.939
    4AAC    H11 1276   2.249   2.334   1.914
    4AAC    H12 1277   2.317   2.353   1.911
    4AAC     C7 1278   2.300   2.292   1.971
    4AAC     O3 1279   2.301   2.248   1.934
    5AAC     O2 1280   2.463   2.011   1.780
    5AAC     C4 1281   2.457   1.968   1.817
    5AAC     C5 1282   2.448   1.992   1.873
    5AAC     H8 1283   2.481   2.020   1.882
    5AAC     H9 1284   2.447   1.961   1.903
    5AAC    H10 1285   2.411   2.014   1.874
    5AAC     H7 1286   2.421   1.944   1.806
    5AAC     C6 1287   2.507   1.933   1.813
    5AAC    H11 1288   2.542   1.957   1.824
    5AAC    H12 1289   2.504   1.900   1.842
    5AAC     C7 1290   2.515   1.909   1.757
    5AAC     O3 1291   2.567   1.885   1.756
    6AAC     O2 1292   2.655   1.586   1.670
    6AAC     C4 1293   2.671   1.541   1.700
    6AAC     C5 1294   2.658   1.552   1.759
    6AAC     H8 1295   2.676   1.590   1.772
    6AAC     H9 1296   2.674   1.520   1.785
    6AAC    H10 1297   2.615   1.555   1.765
    6AAC     H7 1298   2.650   1.505   1.687
    6AAC     C6 1299   2.732   1.533   1.690
    6AAC    H11 1300   2.754   1.568   1.704
    6AAC    H12 1301   2.746   1.499   1.715
    6AAC     C7 1302   2.745   1.522   1.631
    6AAC     O3 1303   2.802   1.524   1.625
    7AAC     O2 1304   3.105   1.513   1.589
    7AAC     C4 1305   3.152   1.491   1.612
    7AAC     C5 1306   3.146   1.494   1.673
    7AAC     H8 1307   3.137   1.535   1.686
    7AAC     H9 1308   3.183   1.481   1.693
    7AAC    H10 1309   3.114   1.468   1.687
    7AAC     H7 1310   3.157   1.449   1.600
    7AAC     C6 1311   3.200   1.524   1.591
    7AAC    H11 1312   3.195   1.565   1.603
    7AAC    H12 1313   3.237   1.509   1.610
    7AAC     C7 1314   3.205   1.520   1.530
    7AAC     O3 1315   3.245   1.559   1.514
    8AAC     O2 1316   3.443   1.625   1.277
    8AAC     C4 1317   3.459   1.575   1.254
    8AAC     C5 1318   3.518   1.581   1.238
    8AAC     H8 1319   3.524   1.617   1.213
    8AAC     H9 1320   3.532   1.546   1.216
    8AAC    H10 1321   3.543   1.586   1.274
    8AAC     H7 1322   3.455   1.543   1.283
    8AAC     C6 1323   3.423   1.564   1.205
    8AAC    H11 1324   3.427   1.597   1.176
    8AAC    H12 1325   3.436   1.527   1.185
    8AAC     C7 1326   3.363   1.559   1.222
    8AAC     O3 1327   3.332   1.558   1.174
    9AAC     O2 1328   0.173   1.243   1.219
    9AAC     C4 1329   0.120   1.228   1.204
    9AAC     C5 1330   0.094   1.277   1.178
    9AAC     H8 1331   0.097   1.312   1.204
    9AAC     H9 1332   0.051   1.269   1.170
    9AAC    H10 1333   0.113   1.286   1.140
    9AAC     H7 1334   0.120   1.195   1.176
    9AAC     C6 1335   0.091   1.211   1.256
    9AAC    H11 1336   0.090   1.245   1.285
    9AAC    H12 1337   0.049   1.201   1.247
    9AAC     C7 1338   0.118   1.162   1.283
    9AAC     O3 1339   0.094   1.155   1.335
   10AAD     O4 1340   0.429   1.011   1.425
   10AAD     C8 1341   0.463   1.008   1.379
   10AAD     C9 1342   0.454   1.059   1.347
   10AAD    H14 1343   0.455   1.094   1.373
   10AAD    H15 1344   0.485   1.064   1.316
   10AAD    H16 1345   0.415   1.057   1.326
   10AAD    H13 1346   0.452   0.973   1.355
   10AAD    C10 1347   0.520   1.003   1.399
   10AAD    H17 1348   0.547   1.026   1.372
   10AAD    H18 1349   0.524   1.021   1.438
   10AAD    C11 1350   0.539   0.945   1.402
   10AAD     O5 1351   0.577   0.941   1.443
   10AAD     O6 1352   0.619   0.903   1.427
   10AAD    H19 1353   0.642   0.905   1.458
    1AAB      C 1354   3.052   1.999   0.823
    1AAB      O 1355   3.074   1.948   0.862
    1AAB      H 1356   3.090   1.959   0.883
    1AAB     H1 1357   3.060   2.043   0.845
    1AAB     C1 1358   2.994   1.992   0.812
    1AAB     H2 1359   3.007   1.944   0.808
    1AAB     H3 1360   2.988   2.021   0.849
    1AAB     H4 1361   2.960   1.971   0.835
    1AAB     C2 1362   2.971   2.018   0.753
    1AAB     H5 1363   2.958   1.982   0.724
    1AAB     H6 1364   2.996   2.034   0.737
    1AAB     C3 1365   2.938   2.045   0.758
    1AAB     O1 1366   2.912   2.046   0.711
    2AAC     O2 1367   2.700   2.176   0.527
    2AAC     C4 1368   2.698   2.232   0.539
    2AAC     C5 1369   2.707   2.239   0.600
    2AAC     H8 1370   2.678   2.214   0.622
    2AAC     H9 1371   2.701   2.280   0.611
    2AAC    H10 1372   2.747   2.226   0.611
    2AAC     H7 1373   2.730   2.253   0.517
    2AAC     C6 1374   2.643   2.253   0.521
    2AAC    H11 1375   2.611   2.232   0.543
    2AAC    H12 1376   2.639   2.296   0.531
    2AAC     C7 1377   2.634   2.246   0.460
    2AAC     O3 1378   2.579   2.258   0.449
    3AAC     O2 1379   2.588   2.425   0.173
    3AAC     C4 1380   2.594   2.424   0.117
    3AAC     C5 1381   2.578   2.480   0.096
    3AAC     H8 1382   2.538   2.490   0.110
    3AAC     H9 1383   2.578   2.480   0.052
    3AAC    H10 1384   2.606   2.510   0.110
    3AAC     H7 1385   2.636   2.416   0.106
    3AAC     C6 1386   2.558   2.379   0.094
    3AAC    H11 1387   2.517   2.387   0.105
    3AAC    H12 1388   2.561   2.379   0.051
    3AAC     C7 1389   2.574   2.323   0.116
    3AAC     O3 1390   2.534   2.286   0.101
    4AAC     O2 1391   2.567   2.018   0.353
    4AAC     C4 1392   2.623   2.023   0.342
    4AAC     C5 1393   2.631   2.019   0.281
    4AAC     H8 1394   2.612   1.983   0.266
    4AAC     H9 1395   2.673   2.018   0.271
    4AAC    H10 1396   2.612   2.054   0.261
    4AAC     H7 1397   2.638   2.062   0.356
    4AAC     C6 1398   2.652   1.978   0.373
    4AAC    H11 1399   2.637   1.939   0.359
    4AAC    H12 1400   2.694   1.979   0.364
    4AAC     C7 1401   2.643   1.982   0.434
    4AAC     O3 1402   2.663   1.934   0.457
    5AAC     O2 1403   2.862   1.872   3.584
    5AAC     C4 1404   2.810   1.866   3.609
    5AAC     C5 1405   2.817   1.873   3.669
    5AAC     H8 1406   2.848   1.845   3.684
    5AAC     H9 1407   2.780   1.865   3.690
    5AAC    H10 1408   2.830   1.914   3.679
    5AAC     H7 1409   2.783   1.897   3.594
    5AAC     C6 1410   2.789   1.810   3.593
    5AAC    H11 1411   2.816   1.780   3.608
    5AAC    H12 1412   2.750   1.804   3.613
    5AAC     C7 1413   2.782   1.804   3.532
    5AAC     O3 1414   2.771   1.749   3.522
    6AAC     O2 1415   2.872   2.292   0.074
    6AAC     C4 1416   2.853   2.304   0.021
    6AAC     C5 1417   2.854   2.251  -0.011
    6AAC     H8 1418   2.894   2.232  -0.009
    6AAC     H9 1419   2.844   2.258  -0.053
    6AAC    H10 1420   2.824   2.223   0.005
    6AAC     H7 1421   2.813   2.320   0.022
    6AAC     C6 1422   2.892   2.346  -0.003
    6AAC    H11 1423   2.932   2.330  -0.004
    6AAC    H12 1424   2.880   2.354  -0.045
    6AAC     C7 1425   2.891   2.399   0.029
    6AAC     O3 1426   2.934   2.431   0.009
    7AAC     O2 1427   2.971   2.476   0.379
    7AAC     C4 1428   3.009   2.517   0.389
    7AAC     C5 1429   3.064   2.491   0.393
    7AAC     H8 1430   3.064   2.458   0.423
    7AAC     H9 1431   3.094   2.520   0.406
    7AAC    H10 1432   3.076   2.474   0.355
    7AAC     H7 1433   3.009   2.546   0.357
    7AAC     C6 1434   2.992   2.545   0.442
    7AAC    H11 1435   2.992   2.515   0.474
    7AAC    H12 1436   3.021   2.576   0.452
    7AAC     C7 1437   2.936   2.571   0.438
    7AAC     O3 1438   2.920   2.587   0.490
    8AAC     O2 1439   2.785   2.658   0.741
    8AAC     C4 1440   2.771   2.657   0.796
    8AAC     C5 1441   2.713   2.677   0.801
    8AAC     H8 1442   2.708   2.716   0.782
    8AAC     H9 1443   2.702   2.681   0.844
    8AAC    H10 1444   2.686   2.648   0.783
    8AAC     H7 1445   2.774   2.616   0.812
    8AAC     C6 1446   2.811   2.694   0.826
    8AAC    H11 1447   2.808   2.735   0.810
    8AAC    H12 1448   2.801   2.695   0.869
    8AAC     C7 1449   2.870   2.674   0.820
    8AAC     O3 1450   2.904   2.715   0.841
    9AAC     O2 1451   3.151   2.476   0.858
    9AAC     C4 1452   3.198   2.502   0.839
    9AAC     C5 1453   3.207   2.482   0.781
    9AAC     H8 1454   3.209   2.438   0.780
    9AAC     H9 1455   3.245   2.498   0.766
    9AAC    H10 1456   3.175   2.496   0.755
    9AAC     H7 1457   3.192   2.545   0.838
    9AAC     C6 1458   3.244   2.488   0.877
    9AAC    H11 1459   3.250   2.444   0.877
    9AAC    H12 1460   3.281   2.506   0.862
    9AAC     C7 1461   3.234   2.507   0.935
    9AAC     O3 1462   3.275   2.485   0.968
   10AAD     O4 1463   3.294   2.318   1.211
   10AAD     C8 1464   3.328   2.303   1.254
   10AAD     C9 1465   3.342   2.353   1.285
   10AAD    H14 1466   3.306   2.377   1.293
   10AAD    H15 1467   3.361   2.343   1.323
   10AAD    H16 1468   3.371   2.378   1.262
   10AAD    H13 1469   3.365   2.284   1.238
   10AAD    C10 1470   3.298   2.262   1.288
   10AAD    H17 1471   3.308   2.269   1.331
   10AAD    H18 1472   3.255   2.269   1.284
   10AAD    C11 1473   3.311   2.205   1.273
   10AAD     O5 1474   3.265   2.173   1.285
   10AAD     O6 1475   3.283   2.121   1.305
   10AAD    H19 1476   3.248   2.104   1.311
    1AAB      C 1477   2.948   1.187   0.180
    1AAB      O 1478   2.895   1.177   0.222
    1AAB      H 1479   2.879   1.156   0.211
    1AAB     H1 1480   2.953   1.150   0.148
    1AAB     C1 1481   2.998   1.192   0.214
    1AAB     H2 1482   2.968   1.217   0.244
    1AAB     H3 1483   3.002   1.145   0.204
    1AAB     H4 1484   3.010   1.175   0.255
    1AAB     C2 1485   3.047   1.231   0.187
    1AAB     H5 1486   3.053   1.270   0.214
    1AAB     H6 1487   3.038   1.241   0.156
    1AAB     C3 1488   3.086   1.210   0.184
    1AAB     O1 1489   3.123   1.248   0.183
    2AAC     O2 1490   3.401   1.256   0.091
    2AAC     C4 1491   3.447   1.289   0.099
    2AAC     C5 1492   3.486   1.278   0.053
    2AAC     H8 1493   3.495   1.235   0.050
    2AAC     H9 1494   3.524   1.299   0.059
    2AAC    H10 1495   3.469   1.292   0.015
    2AAC     H7 1496   3.436   1.332   0.098
    2AAC     C6 1497   3.471   1.275   0.154
    2AAC    H11 1498   3.483   1.233   0.154
    2AAC    H12 1499   3.508   1.299   0.160
    2AAC     C7 1500   3.432   1.286   0.200
    2AAC     O3 1501   3.454   1.263   0.248
    3AAC     O2 1502   3.191   1.308   0.505
    3AAC     C4 1503   3.155   1.280   0.471
    3AAC     C5 1504   3.171   1.292   0.413
    3AAC     H8 1505   3.173   1.335   0.406
    3AAC     H9 1506   3.142   1.274   0.385
    3AAC    H10 1507   3.210   1.275   0.404
    3AAC     H7 1508   3.158   1.237   0.478
    3AAC     C6 1509   3.097   1.299   0.484
    3AAC    H11 1510   3.095   1.342   0.476
    3AAC    H12 1511   3.069   1.279   0.457
    3AAC     C7 1512   3.082   1.287   0.542
    3AAC     O3 1513   3.033   1.315   0.553
    4AAC     O2 1514   2.987   1.189   0.854
    4AAC     C4 1515   2.989   1.137   0.879
    4AAC     C5 1516   2.983   1.095   0.835
    4AAC     H8 1517   2.947   1.103   0.811
    4AAC     H9 1518   2.980   1.055   0.852
    4AAC    H10 1519   3.018   1.096   0.808
    4AAC     H7 1520   3.027   1.132   0.900
    4AAC     C6 1521   2.943   1.135   0.920
    4AAC    H11 1522   2.904   1.140   0.900
    4AAC    H12 1523   2.942   1.095   0.939
    4AAC     C7 1524   2.948   1.178   0.964
    4AAC     O3 1525   2.900   1.178   0.995
    5AAC     O2 1526   2.929   1.166   1.312
    5AAC     C4 1527   2.886   1.147   1.344
    5AAC     C5 1528   2.834   1.160   1.315
    5AAC     H8 1529   2.832   1.203   1.304
    5AAC     H9 1530   2.799   1.150   1.340
    5AAC    H10 1531   2.831   1.136   1.278
    5AAC     H7 1532   2.890   1.104   1.350
    5AAC     C6 1533   2.890   1.176   1.399
    5AAC    H11 1534   2.887   1.219   1.393
    5AAC    H12 1535   2.856   1.163   1.424
    5AAC     C7 1536   2.943   1.164   1.428
    5AAC     O3 1537   2.946   1.199   1.473
    6AAC     O2 1538   3.154   1.226   1.679
    6AAC     C4 1539   3.186   1.190   1.708
    6AAC     C5 1540   3.153   1.140   1.720
    6AAC     H8 1541   3.115   1.151   1.739
    6AAC     H9 1542   3.175   1.113   1.746
    6AAC    H10 1543   3.144   1.119   1.683
    6AAC     H7 1544   3.222   1.179   1.685
    6AAC     C6 1545   3.204   1.219   1.760
    6AAC    H11 1546   3.168   1.230   1.783
    6AAC    H12 1547   3.228   1.192   1.785
    6AAC     C7 1548   3.237   1.270   1.748
    6AAC     O3 1549   3.243   1.299   1.797
    7AAC     O2 1550   3.458   1.451   1.907
    7AAC     C4 1551   3.487   1.499   1.919
    7AAC     C5 1552   3.527   1.509   1.874
    7AAC     H8 1553   3.552   1.474   1.867
    7AAC     H9 1554   3.553   1.543   1.884
    7AAC    H10 1555   3.506   1.518   1.837
    7AAC     H7 1556   3.459   1.533   1.922
    7AAC     C6 1557   3.515   1.490   1.974
    7AAC    H11 1558   3.542   1.456   1.971
    7AAC    H12 1559   3.538   1.525   1.984
    7AAC     C7 1560   3.474   1.479   2.019
    7AAC     O3 1561   3.504   1.462   2.065
    8AAC     O2 1562   3.369   1.425   2.318
    8AAC     C4 1563   3.344   1.407   2.366
    8AAC     C5 1564   3.318   1.456   2.393
    8AAC     H8 1565   3.347   1.488   2.397
    8AAC     H9 1566   3.302   1.445   2.432
    8AAC    H10 1567   3.284   1.470   2.368
    8AAC     H7 1568   3.314   1.377   2.358
    8AAC     C6 1569   3.389   1.383   2.401
    8AAC    H11 1570   3.419   1.413   2.410
    8AAC    H12 1571   3.372   1.370   2.440
    8AAC     C7 1572   3.416   1.334   2.374
    8AAC     O3 1573   3.462   1.320   2.405
    9AAC     O2 1574   3.678   1.013   2.298
    9AAC     C4 1575   3.684   1.041   2.249
    9AAC     C5 1576   3.744   1.056   2.243
    9AAC     H8 1577   3.758   1.077   2.279
    9AAC     H9 1578   3.749   1.082   2.208
    9AAC    H10 1579   3.768   1.020   2.238
    9AAC     H7 1580   3.672   1.016   2.215
    9AAC     C6 1581   3.648   1.091   2.252
    9AAC    H11 1582   3.660   1.116   2.286
    9AAC    H12 1583   3.653   1.115   2.215
    9AAC     C7 1584   3.588   1.076   2.258
    9AAC     O3 1585   3.559   1.124   2.270
   10AAD     O4 1586   0.397   1.114   2.612
   10AAD     C8 1587   0.345   1.100   2.593
   10AAD     C9 1588   0.344   1.041   2.581
   10AAD    H14 1589   0.362   1.019   2.615
   10AAD    H15 1590   0.303   1.027   2.575
   10AAD    H16 1591   0.367   1.032   2.545
   10AAD    H13 1592   0.337   1.122   2.556
   10AAD    C10 1593   0.304   1.117   2.635
   10AAD    H17 1594   0.272   1.087   2.636
   10AAD    H18 1595   0.324   1.116   2.675
   10AAD    C11 1596   0.282   1.173   2.625
   10AAD     O5 1597   0.268   1.195   2.676
   10AAD     O6 1598   0.219   1.226   2.670
   10AAD    H19 1599   0.215   1.238   2.707
    1AAB      C 1600   2.024   2.025   1.755
    1AAB      O 1601   2.065   2.080   1.761
    1AAB      H 1602   2.060   2.097   1.739
    1AAB     H1 1603   1.988   2.034   1.721
    1AAB     C1 1604   2.000   2.013   1.809
    1AAB     H2 1605   2.045   2.025   1.825
    1AAB     H3 1606   1.963   2.040   1.792
    1AAB     H4 1607   1.990   2.039   1.845
    1AAB     C2 1608   1.983   1.948   1.820
    1AAB     H5 1609   2.012   1.930   1.854
    1AAB     H6 1610   1.989   1.930   1.792
    1AAB     C3 1611   1.942   1.942   1.831
    1AAB     O1 1612   1.939   1.896   1.858
    2AAC     O2 1613   1.718   1.737   1.936
    2AAC     C4 1614   1.684   1.713   1.975
    2AAC     C5 1615   1.720   1.689   2.019
    2AAC     H8 1616   1.750   1.661   2.001
    2AAC     H9 1617   1.696   1.666   2.047
    2AAC    H10 1618   1.741   1.720   2.041
    2AAC     H7 1619   1.658   1.743   1.993
    2AAC     C6 1620   1.650   1.670   1.946
    2AAC    H11 1621   1.677   1.640   1.928
    2AAC    H12 1622   1.625   1.649   1.975
    2AAC     C7 1623   1.615   1.695   1.902
    2AAC     O3 1624   1.592   1.652   1.872
    3AAC     O2 1625   1.355   1.696   1.707
    3AAC     C4 1626   1.326   1.701   1.658
    3AAC     C5 1627   1.269   1.720   1.671
    3AAC     H8 1628   1.251   1.694   1.701
    3AAC     H9 1629   1.244   1.720   1.635
    3AAC    H10 1630   1.271   1.761   1.688
    3AAC     H7 1631   1.345   1.730   1.631
    3AAC     C6 1632   1.326   1.645   1.631
    3AAC    H11 1633   1.307   1.616   1.657
    3AAC    H12 1634   1.303   1.647   1.594
    3AAC     C7 1635   1.383   1.626   1.618
    3AAC     O3 1636   1.380   1.571   1.602
    4AAC     O2 1637   1.649   1.442   1.561
    4AAC     C4 1638   1.706   1.445   1.567
    4AAC     C5 1639   1.723   1.501   1.547
    4AAC     H8 1640   1.708   1.507   1.506
    4AAC     H9 1641   1.767   1.504   1.546
    4AAC    H10 1642   1.707   1.532   1.572
    4AAC     H7 1643   1.717   1.441   1.609
    4AAC     C6 1644   1.731   1.399   1.534
    4AAC    H11 1645   1.720   1.403   1.492
    4AAC    H12 1646   1.775   1.402   1.537
    4AAC     C7 1647   1.713   1.344   1.555
    4AAC     O3 1648   1.731   1.305   1.517
    5AAC     O2 1649   1.852   0.960   1.474
    5AAC     C4 1650   1.803   0.960   1.504
    5AAC     C5 1651   1.789   1.019   1.515
    5AAC     H8 1652   1.822   1.040   1.534
    5AAC     H9 1653   1.754   1.021   1.541
    5AAC    H10 1654   1.779   1.039   1.477
    5AAC     H7 1655   1.771   0.941   1.481
    5AAC     C6 1656   1.813   0.928   1.556
    5AAC    H11 1657   1.845   0.948   1.579
    5AAC    H12 1658   1.777   0.930   1.581
    5AAC     C7 1659   1.828   0.870   1.545
    5AAC     O3 1660   1.845   0.847   1.595
    6AAC     O2 1661   1.740   0.642   1.788
    6AAC     C4 1662   1.710   0.619   1.831
    6AAC     C5 1663   1.743   0.628   1.883
    6AAC     H8 1664   1.784   0.612   1.877
    6AAC     H9 1665   1.725   0.607   1.916
    6AAC    H10 1666   1.746   0.670   1.892
    6AAC     H7 1667   1.672   0.639   1.836
    6AAC     C6 1668   1.702   0.559   1.819
    6AAC    H11 1669   1.741   0.539   1.814
    6AAC    H12 1670   1.681   0.540   1.852
    6AAC     C7 1671   1.669   0.551   1.767
    6AAC     O3 1672   1.671   0.495   1.754
    7AAC     O2 1673   1.528   0.489   1.480
    7AAC     C4 1674   1.492   0.499   1.437
    7AAC     C5 1675   1.441   0.523   1.461
    7AAC     H8 1676   1.425   0.497   1.493
    7AAC     H9 1677   1.410   0.527   1.430
    7AAC    H10 1678   1.449   0.562   1.478
    7AAC     H7 1679   1.509   0.527   1.408
    7AAC     C6 1680   1.482   0.444   1.409
    7AAC    H11 1681   1.464   0.416   1.438
    7AAC    H12 1682   1.452   0.450   1.377
    7AAC     C7 1683   1.533   0.420   1.385
    7AAC     O3 1684   1.521   0.367   1.369
    8AAC     O2 1685   1.745   0.140   1.321
    8AAC     C4 1686   1.752   0.134   1.264
    8AAC     C5 1687   1.769   0.076   1.254
    8AAC     H8 1688   1.804   0.065   1.278
    8AAC     H9 1689   1.778   0.070   1.211
    8AAC    H10 1690   1.736   0.049   1.264
    8AAC     H7 1691   1.714   0.143   1.244
    8AAC     C6 1692   1.795   0.175   1.246
    8AAC    H11 1693   1.833   0.166   1.267
    8AAC    H12 1694   1.803   0.170   1.203
    8AAC     C7 1695   1.779   0.233   1.258
    8AAC     O3 1696   1.824   0.266   1.248
    9AAC     O2 1697   1.679   3.434   1.576
    9AAC     C4 1698   1.695   3.488   1.585
    9AAC     C5 1699   1.708   3.493   1.645
    9AAC     H8 1700   1.674   3.479   1.669
    9AAC     H9 1701   1.716   3.535   1.655
    9AAC    H10 1702   1.743   3.469   1.656
    9AAC     H7 1703   1.731   3.497   1.562
    9AAC     C6 1704   1.649   3.524   1.567
    9AAC    H11 1705   1.613   3.515   1.591
    9AAC    H12 1706   1.659   3.566   1.576
    9AAC     C7 1707   1.636   3.518   1.507
    9AAC     O3 1708   1.587   3.546   1.497
   10AAD     O4 1709   2.081   3.543   1.556
   10AAD     C8 1710   2.133   3.529   1.574
   10AAD     C9 1711   2.133   3.469   1.584
   10AAD    H14 1712   2.114   3.448   1.550
   10AAD    H15 1713   2.174   3.454   1.589
   10AAD    H16 1714   2.110   3.460   1.620
   10AAD    H13 1715   2.142   3.550   1.611
   10AAD    C10 1716   2.173   3.545   1.531
   10AAD    H17 1717   2.205   3.515   1.529
   10AAD    H18 1718   2.153   3.545   1.492
   10AAD    C11 1719   2.197   3.600   1.542
   10AAD     O5 1720   2.210   3.623   1.491
   10AAD     O6 1721   2.260   3.653   1.497
   10AAD    H19 1722   2.264   3.666   1.460
    1AAB      C 1723   1.973   0.640   1.170
    1AAB      O 1724   1.909   0.631   1.146
    1AAB      H 1725   1.908   0.644   1.120
    1AAB     H1 1726   2.004   0.656   1.133
    1AAB     C1 1727   1.992   0.588   1.193
    1AAB     H2 1728   1.946   0.585   1.209
    1AAB     H3 1729   2.012   0.582   1.149
    1AAB     H4 1730   1.982   0.544   1.184
    1AAB     C2 1731   2.038   0.594   1.244
    1AAB     H5 1732   2.018   0.578   1.284
    1AAB     H6 1733   2.046   0.626   1.248
    1AAB     C3 1734   2.075   0.571   1.236
    1AAB     O1 1735   2.096   0.561   1.284
    2AAC     O2 1736   2.374   0.499   1.335
    2AAC     C4 1737   2.421   0.493   1.367
    2AAC     C5 1738   2.470   0.497   1.330
    2AAC     H8 1739   2.466   0.468   1.297
    2AAC     H9 1740   2.507   0.488   1.351
    2AAC    H10 1741   2.473   0.537   1.312
    2AAC     H7 1742   2.423   0.525   1.397
    2AAC     C6 1743   2.418   0.438   1.396
    2AAC    H11 1744   2.415   0.406   1.366
    2AAC    H12 1745   2.454   0.432   1.419
    2AAC     C7 1746   2.368   0.434   1.433
    2AAC     O3 1747   2.364   0.380   1.450
    3AAC     O2 1748   2.134   0.381   1.658
    3AAC     C4 1749   2.086   0.349   1.663
    3AAC     C5 1750   2.057   0.351   1.609
    3AAC     H8 1751   2.050   0.393   1.596
    3AAC     H9 1752   2.019   0.331   1.611
    3AAC    H10 1753   2.081   0.331   1.578
    3AAC     H7 1754   2.097   0.307   1.672
    3AAC     C6 1755   2.053   0.372   1.709
    3AAC    H11 1756   2.042   0.414   1.699
    3AAC    H12 1757   2.015   0.350   1.712
    3AAC     C7 1758   2.082   0.371   1.763
    3AAC     O3 1759   2.052   0.401   1.800
    4AAC     O2 1760   2.009   0.443   2.162
    4AAC     C4 1761   2.037   0.395   2.150
    4AAC     C5 1762   2.026   0.381   2.091
    4AAC     H8 1763   1.982   0.380   2.084
    4AAC     H9 1764   2.043   0.342   2.080
    4AAC    H10 1765   2.043   0.412   2.065
    4AAC     H7 1766   2.080   0.400   2.155
    4AAC     C6 1767   2.017   0.351   2.188
    4AAC    H11 1768   1.973   0.345   2.183
    4AAC    H12 1769   2.036   0.313   2.179
    4AAC     C7 1770   2.028   0.365   2.248
    4AAC     O3 1771   2.000   0.327   2.280
    5AAC     O2 1772   2.108   0.085   2.458
    5AAC     C4 1773   2.134   0.076   2.507
    5AAC     C5 1774   2.132   0.016   2.519
    5AAC     H8 1775   2.091   0.001   2.517
    5AAC     H9 1776   2.148   0.007   2.559
    5AAC    H10 1777   2.156  -0.006   2.489
    5AAC     H7 1778   2.176   0.089   2.505
    5AAC     C6 1779   2.105   0.110   2.551
    5AAC    H11 1780   2.063   0.097   2.553
    5AAC    H12 1781   2.124   0.102   2.590
    5AAC     C7 1782   2.107   0.170   2.539
    5AAC     O3 1783   2.072   0.196   2.575
    6AAC     O2 1784   1.723   3.458   2.577
    6AAC     C4 1785   1.732   3.513   2.590
    6AAC     C5 1786   1.748   3.515   2.650
    6AAC     H8 1787   1.718   3.494   2.674
    6AAC     H9 1788   1.751   3.556   2.663
    6AAC    H10 1789   1.787   3.495   2.656
    6AAC     H7 1790   1.764   3.529   2.566
    6AAC     C6 1791   1.679   3.543   2.579
    6AAC    H11 1792   1.647   3.526   2.603
    6AAC    H12 1793   1.684   3.585   2.590
    6AAC     C7 1794   1.663   3.540   2.519
    6AAC     O3 1795   1.610   3.562   2.515
    7AAC     O2 1796   1.541   3.554   2.218
    7AAC     C4 1797   1.500   3.536   2.181
    7AAC     C5 1798   1.527   3.529   2.126
    7AAC     H8 1799   1.547   3.567   2.115
    7AAC     H9 1800   1.497   3.520   2.096
    7AAC    H10 1801   1.557   3.497   2.128
    7AAC     H7 1802   1.484   3.498   2.195
    7AAC     C6 1803   1.455   3.578   2.181
    7AAC    H11 1804   1.471   3.617   2.168
    7AAC    H12 1805   1.425   3.566   2.152
    7AAC     C7 1806   1.429   3.585   2.237
    7AAC     O3 1807   1.395   3.631   2.234
    8AAC     O2 1808   1.318   3.619   2.554
    8AAC     C4 1809   1.265   3.630   2.571
    8AAC     C5 1810   1.240   3.668   2.530
    8AAC     H8 1811   1.266   3.703   2.525
    8AAC     H9 1812   1.201   3.681   2.544
    8AAC    H10 1813   1.235   3.648   2.492
    8AAC     H7 1814   1.242   3.593   2.573
    8AAC     C6 1815   1.269   3.655   2.628
    8AAC    H11 1816   1.292   3.692   2.626
    8AAC    H12 1817   1.229   3.666   2.642
    8AAC     C7 1818   1.295   3.617   2.669
    8AAC     O3 1819   1.304   3.646   2.717
    9AAC     O2 1820   1.343   3.590   3.069
    9AAC     C4 1821   1.292   3.575   3.048
    9AAC     C5 1822   1.252   3.618   3.065
    9AAC     H8 1823   1.253   3.624   3.108
    9AAC     H9 1824   1.211   3.606   3.053
    9AAC    H10 1825   1.261   3.656   3.045
    9AAC     H7 1826   1.294   3.573   3.004
    9AAC     C6 1827   1.278   3.519   3.071
    9AAC    H11 1828   1.276   3.522   3.115
    9AAC    H12 1829   1.238   3.507   3.057
    9AAC     C7 1830   1.319   3.476   3.055
    9AAC     O3 1831   1.308   3.429   3.085
   10AAD     O4 1832   1.502   0.284   3.333
   10AAD     C8 1833   1.519   0.234   3.314
   10AAD     C9 1834   1.578   0.239   3.299
   10AAD    H14 1835   1.600   0.260   3.331
   10AAD    H15 1836   1.596   0.200   3.293
   10AAD    H16 1837   1.582   0.262   3.262
   10AAD    H13 1838   1.496   0.222   3.278
   10AAD    C10 1839   1.510   0.193   3.358
   10AAD    H17 1840   1.543   0.163   3.358
   10AAD    H18 1841   1.511   0.213   3.397
   10AAD    C11 1842   1.457   0.163   3.352
   10AAD     O5 1843   1.439   0.149   3.404
   10AAD     O6 1844   1.413   0.096   3.401
   10AAD    H19 1845   1.404   0.092   3.438
    1AAB      C 1846   1.209   2.000   2.856
    1AAB      O 1847   1.237   1.947   2.889
    1AAB      H 1848   1.224   1.944   2.914
    1AAB     H1 1849   1.167   2.014   2.879
    1AAB     C1 1850   1.198   1.984   2.799
    1AAB     H2 1851   1.242   1.961   2.803
    1AAB     H3 1852   1.154   1.975   2.816
    1AAB     H4 1853   1.189   1.944   2.779
    1AAB     C2 1854   1.199   2.035   2.754
    1AAB     H5 1855   1.236   2.029   2.724
    1AAB     H6 1856   1.204   2.064   2.770
    1AAB     C3 1857   1.163   2.038   2.730
    1AAB     O1 1858   1.176   2.063   2.685
    2AAC     O2 1859   1.052   2.279   2.532
    2AAC     C4 1860   1.048   2.286   2.476
    2AAC     C5 1861   1.104   2.283   2.452
    2AAC     H8 1862   1.131   2.312   2.472
    2AAC     H9 1863   1.103   2.292   2.409
    2AAC    H10 1864   1.121   2.242   2.458
    2AAC     H7 1865   1.023   2.254   2.459
    2AAC     C6 1866   1.020   2.340   2.465
    2AAC    H11 1867   1.045   2.372   2.482
    2AAC    H12 1868   1.018   2.347   2.422
    2AAC     C7 1869   0.964   2.343   2.490
    2AAC     O3 1870   0.946   2.397   2.486
    3AAC     O2 1871   0.664   2.458   2.488
    3AAC     C4 1872   0.620   2.495   2.489
    3AAC     C5 1873   0.605   2.503   2.548
    3AAC     H8 1874   0.597   2.465   2.568
    3AAC     H9 1875   0.568   2.528   2.551
    3AAC    H10 1876   0.637   2.524   2.569
    3AAC     H7 1877   0.632   2.533   2.471
    3AAC     C6 1878   0.574   2.470   2.456
    3AAC    H11 1879   0.562   2.431   2.474
    3AAC    H12 1880   0.539   2.496   2.458
    3AAC     C7 1881   0.590   2.461   2.397
    3AAC     O3 1882   0.548   2.429   2.372
    4AAC     O2 1883   0.623   2.412   2.051
    4AAC     C4 1884   0.625   2.360   2.030
    4AAC     C5 1885   0.639   2.365   1.970
    4AAC     H8 1886   0.611   2.392   1.950
    4AAC     H9 1887   0.637   2.325   1.951
    4AAC    H10 1888   0.680   2.381   1.965
    4AAC     H7 1889   0.656   2.336   2.050
    4AAC     C6 1890   0.570   2.333   2.039
    4AAC    H11 1891   0.539   2.356   2.018
    4AAC    H12 1892   0.570   2.293   2.021
    4AAC     C7 1893   0.556   2.329   2.099
    4AAC     O3 1894   0.501   2.312   2.102
    5AAC     O2 1895   0.161   2.181   2.088
    5AAC     C4 1896   0.153   2.172   2.032
    5AAC     C5 1897   0.095   2.151   2.025
    5AAC     H8 1898   0.088   2.116   2.051
    5AAC     H9 1899   0.089   2.139   1.983
    5AAC    H10 1900   0.066   2.182   2.035
    5AAC     H7 1901   0.158   2.209   2.010
    5AAC     C6 1902   0.195   2.130   2.014
    5AAC    H11 1903   0.190   2.093   2.037
    5AAC    H12 1904   0.189   2.121   1.972
    5AAC     C7 1905   0.253   2.151   2.023
    5AAC     O3 1906   0.289   2.107   2.014
    6AAC     O2 1907   3.531   2.454   2.213
    6AAC     C4 1908   3.567   2.479   2.175
    6AAC     C5 1909   3.624   2.464   2.191
    6AAC     H8 1910   3.631   2.475   2.234
    6AAC     H9 1911   3.653   2.486   2.166
    6AAC    H10 1912   3.631   2.421   2.187
    6AAC     H7 1913   3.559   2.464   2.135
    6AAC     C6 1914   3.556   2.540   2.177
    6AAC    H11 1915   3.564   2.555   2.217
    6AAC    H12 1916   3.584   2.560   2.150
    6AAC     C7 1917   3.498   2.554   2.161
    6AAC     O3 1918   3.490   2.609   2.172
    7AAC     O2 1919   0.177   2.913   2.267
    7AAC     C4 1920   0.121   2.902   2.275
    7AAC     C5 1921   0.099   2.879   2.222
    7AAC     H8 1922   0.108   2.907   2.189
    7AAC     H9 1923   0.056   2.874   2.225
    7AAC    H10 1924   0.118   2.840   2.213
    7AAC     H7 1925   0.116   2.872   2.307
    7AAC     C6 1926   0.094   2.954   2.292
    7AAC    H11 1927   0.099   2.984   2.260
    7AAC    H12 1928   0.051   2.947   2.296
    7AAC     C7 1929   0.116   2.977   2.344
    7AAC     O3 1930   0.095   3.030   2.351
    8AAC     O2 1931   0.086   3.324   2.177
    8AAC     C4 1932   0.079   3.380   2.186
    8AAC     C5 1933   0.018   3.391   2.189
    8AAC     H8 1934  -0.002   3.374   2.154
    8AAC     H9 1935   0.010   3.434   2.191
    8AAC    H10 1936   0.001   3.371   2.225
    8AAC     H7 1937   0.098   3.392   2.223
    8AAC     C6 1938   0.105   3.409   2.138
    8AAC    H11 1939   0.086   3.397   2.101
    8AAC    H12 1940   0.099   3.452   2.143
    8AAC     C7 1941   0.166   3.398   2.135
    8AAC     O3 1942   0.185   3.419   2.085
    9AAC     O2 1943   3.351   3.446   2.481
    9AAC     C4 1944   3.404   3.461   2.495
    9AAC     C5 1945   3.430   3.485   2.444
    9AAC     H8 1946   3.427   3.457   2.410
    9AAC     H9 1947   3.473   3.493   2.452
    9AAC    H10 1948   3.410   3.522   2.434
    9AAC     H7 1949   3.404   3.490   2.527
    9AAC     C6 1950   3.433   3.410   2.514
    9AAC    H11 1951   3.433   3.380   2.482
    9AAC    H12 1952   3.475   3.419   2.523
    9AAC     C7 1953   3.407   3.385   2.564
    9AAC     O3 1954   3.430   3.334   2.573
   10AAD     O4 1955   3.090   3.515   2.724
   10AAD     C8 1956   3.033   3.517   2.720
   10AAD     C9 1957   3.013   3.459   2.723
   10AAD    H14 1958   3.032   3.438   2.756
   10AAD    H15 1959   2.969   3.459   2.730
   10AAD    H16 1960   3.021   3.438   2.686
   10AAD    H13 1961   3.021   3.535   2.682
   10AAD    C10 1962   3.013   3.551   2.766
   10AAD    H17 1963   2.975   3.535   2.781
   10AAD    H18 1964   3.042   3.549   2.799
   10AAD    C11 1965   3.005   3.609   2.750
   10AAD     O5 1966   3.013   3.642   2.796
   10AAD     O6 1967   2.975   3.686   2.795
   10AAD    H19 1968   2.985   3.704   2.828
    1AAB      C 1969   2.253   1.589   1.583
    1AAB      O 1970   2.297   1.638   1.565
    1AAB      H 1971   2.313   1.629   1.543
    1AAB     H1 1972   2.251   1.554   1.547
    1AAB     C1 1973   2.199   1.613   1.592
    1AAB     H2 1974   2.225   1.649   1.613
    1AAB     H3 1975   2.192   1.601   1.546
    1AAB     H4 1976   2.178   1.651   1.575
    1AAB     C2 1977   2.159   1.580   1.636
    1AAB     H5 1978   2.152   1.608   1.675
    1AAB     H6 1979   2.174   1.553   1.646
    1AAB     C3 1980   2.120   1.570   1.620
    1AAB     O1 1981   2.087   1.565   1.661
    2AAC     O2 1982   2.380   1.904   1.365
    2AAC     C4 1983   2.436   1.914   1.358
    2AAC     C5 1984   2.464   1.901   1.411
    2AAC     H8 1985   2.445   1.924   1.444
    2AAC     H9 1986   2.506   1.912   1.410
    2AAC    H10 1987   2.461   1.858   1.420
    2AAC     H7 1988   2.452   1.888   1.327
    2AAC     C6 1989   2.443   1.973   1.341
    2AAC    H11 1990   2.426   1.999   1.373
    2AAC    H12 1991   2.485   1.982   1.337
    2AAC     C7 1992   2.414   1.985   1.288
    2AAC     O3 1993   2.415   2.042   1.281
    3AAC     O2 1994   2.460   2.143   0.986
    3AAC     C4 1995   2.498   2.183   0.968
    3AAC     C5 1996   2.516   2.214   1.018
    3AAC     H8 1997   2.481   2.230   1.040
    3AAC     H9 1998   2.542   2.247   1.007
    3AAC    H10 1999   2.539   2.187   1.045
    3AAC     H7 2000   2.532   2.163   0.950
    3AAC     C6 2001   2.469   2.219   0.927
    3AAC    H11 2002   2.435   2.238   0.946
    3AAC    H12 2003   2.497   2.250   0.914
    3AAC     C7 2004   2.451   2.187   0.877
    3AAC     O3 2005   2.417   2.222   0.846
    4AAC     O2 2006   2.414   2.299   0.528
    4AAC     C4 2007   2.363   2.324   0.525
    4AAC     C5 2008   2.329   2.303   0.572
    4AAC     H8 2009   2.327   2.259   0.571
    4AAC     H9 2010   2.288   2.318   0.569
    4AAC    H10 2011   2.346   2.315   0.610
    4AAC     H7 2012   2.367   2.368   0.529
    4AAC     C6 2013   2.338   2.311   0.470
    4AAC    H11 2014   2.334   2.268   0.466
    4AAC    H12 2015   2.298   2.329   0.467
    4AAC     C7 2016   2.373   2.332   0.423
    4AAC     O3 2017   2.352   2.311   0.375
    5AAC     O2 2018   2.272   2.509   0.104
    5AAC     C4 2019   2.215   2.508   0.104
    5AAC     C5 2020   2.197   2.460   0.137
    5AAC     H8 2021   2.217   2.423   0.123
    5AAC     H9 2022   2.154   2.454   0.135
    5AAC    H10 2023   2.208   2.466   0.180
    5AAC     H7 2024   2.199   2.545   0.121
    5AAC     C6 2025   2.197   2.503   0.044
    5AAC    H11 2026   2.214   2.466   0.027
    5AAC    H12 2027   2.154   2.500   0.043
    5AAC     C7 2028   2.216   2.551   0.010
    5AAC     O3 2029   2.206   2.539  -0.044
    6AAC     O2 2030   2.169   2.327   3.256
    6AAC     C4 2031   2.178   2.332   3.313
    6AAC     C5 2032   2.203   2.280   3.332
    6AAC     H8 2033   2.178   2.245   3.321
    6AAC     H9 2034   2.206   2.280   3.376
    6AAC    H10 2035   2.243   2.274   3.315
    6AAC     H7 2036   2.206   2.365   3.321
    6AAC     C6 2037   2.123   2.344   3.339
    6AAC    H11 2038   2.096   2.311   3.331
    6AAC    H12 2039   2.128   2.346   3.383
    6AAC     C7 2040   2.098   2.397   3.319
    6AAC     O3 2041   2.045   2.399   3.338
    7AAC     O2 2042   1.760   2.196   3.369
    7AAC     C4 2043   1.724   2.151   3.368
    7AAC     C5 2044   1.672   2.171   3.343
    7AAC     H8 2045   1.657   2.206   3.365
    7AAC     H9 2046   1.641   2.139   3.345
    7AAC    H10 2047   1.677   2.182   3.301
    7AAC     H7 2048   1.741   2.119   3.343
    7AAC     C6 2049   1.717   2.131   3.426
    7AAC    H11 2050   1.701   2.163   3.451
    7AAC    H12 2051   1.689   2.098   3.427
    7AAC     C7 2052   1.771   2.112   3.451
    7AAC     O3 2053   1.762   2.103   3.506
    8AAC     O2 2054   2.028   2.070   3.654
    8AAC     C4 2055   2.058   2.024   3.671
    8AAC     C5 2056   2.061   2.025   3.732
    8AAC     H8 2057   2.077   2.063   3.746
    8AAC     H9 2058   2.087   1.993   3.747
    8AAC    H10 2059   2.021   2.019   3.749
    8AAC     H7 2060   2.038   1.987   3.658
    8AAC     C6 2061   2.114   2.028   3.645
    8AAC    H11 2062   2.134   2.064   3.658
    8AAC    H12 2063   2.139   1.994   3.658
    8AAC     C7 2064   2.111   2.027   3.583
    8AAC     O3 2065   2.163   2.040   3.563
    9AAC     O2 2066   1.807   1.800   0.382
    9AAC     C4 2067   1.785   1.826   0.336
    9AAC     C5 2068   1.782   1.784   0.291
    9AAC     H8 2069   1.822   1.765   0.285
    9AAC     H9 2070   1.770   1.803   0.254
    9AAC    H10 2071   1.753   1.753   0.301
    9AAC     H7 2072   1.745   1.841   0.345
    9AAC     C6 2073   1.823   1.873   0.322
    9AAC    H11 2074   1.863   1.858   0.313
    9AAC    H12 2075   1.808   1.893   0.286
    9AAC     C7 2076   1.826   1.915   0.368
    9AAC     O3 2077   1.868   1.952   0.355
   10AAD     O4 2078   1.765   1.846   0.729
   10AAD     C8 2079   1.785   1.830   0.780
   10AAD     C9 2080   1.833   1.865   0.793
   10AAD    H14 2081   1.824   1.907   0.786
   10AAD    H15 2082   1.844   1.861   0.836
   10AAD    H16 2083   1.867   1.853   0.769
   10AAD    H13 2084   1.798   1.788   0.779
   10AAD    C10 2085   1.740   1.836   0.820
   10AAD    H17 2086   1.756   1.850   0.859
   10AAD    H18 2087   1.712   1.868   0.806
   10AAD    C11 2088   1.708   1.784   0.829
   10AAD     O5 2089   1.655   1.798   0.842
   10AAD     O6 2090   1.635   1.760   0.882
   10AAD    H19 2091   1.599   1.775   0.887
    1AAB      C 2092   2.147  -0.021   1.999
    1AAB      O 2093   2.135  -0.089   1.997
    1AAB      H 2094   2.112  -0.093   1.980
    1AAB     H1 2095   2.122   0.002   1.963
    1AAB     C1 2096   2.206  -0.012   1.992
    1AAB     H2 2097   2.209  -0.052   2.021
    1AAB     H3 2098   2.195  -0.007   1.946
    1AAB     H4 2099   2.239  -0.036   1.971
    1AAB     C2 2100   2.231   0.044   2.021
    1AAB     H5 2101   2.260   0.032   2.057
    1AAB     H6 2102   2.206   0.062   2.035
    1AAB     C3 2103   2.253   0.070   1.994
    1AAB     O1 2104   2.286   0.100   2.023
    2AAC     O2 2105   2.394   0.342   1.889
    2AAC     C4 2106   2.400   0.395   1.868
    2AAC     C5 2107   2.431   0.391   1.816
    2AAC     H8 2108   2.469   0.369   1.822
    2AAC     H9 2109   2.441   0.431   1.800
    2AAC    H10 2110   2.408   0.369   1.786
    2AAC     H7 2111   2.360   0.413   1.860
    2AAC     C6 2112   2.429   0.429   1.911
    2AAC    H11 2113   2.468   0.411   1.919
    2AAC    H12 2114   2.436   0.469   1.895
    2AAC     C7 2115   2.397   0.433   1.964
    2AAC     O3 2116   2.432   0.456   2.003
    3AAC     O2 2117   2.337   0.407   2.299
    3AAC     C4 2118   2.287   0.409   2.326
    3AAC     C5 2119   2.245   0.432   2.288
    3AAC     H8 2120   2.259   0.471   2.272
    3AAC     H9 2121   2.207   0.439   2.308
    3AAC    H10 2122   2.238   0.405   2.254
    3AAC     H7 2123   2.275   0.369   2.338
    3AAC     C6 2124   2.294   0.444   2.377
    3AAC    H11 2125   2.306   0.485   2.365
    3AAC    H12 2126   2.256   0.448   2.398
    3AAC     C7 2127   2.337   0.421   2.415
    3AAC     O3 2128   2.347   0.460   2.455
    4AAC     O2 2129   2.436   0.750   2.566
    4AAC     C4 2130   2.438   0.767   2.621
    4AAC     C5 2131   2.380   0.766   2.642
    4AAC     H8 2132   2.354   0.789   2.616
    4AAC     H9 2133   2.379   0.783   2.683
    4AAC    H10 2134   2.365   0.725   2.644
    4AAC     H7 2135   2.463   0.740   2.644
    4AAC     C6 2136   2.462   0.824   2.621
    4AAC    H11 2137   2.437   0.851   2.598
    4AAC    H12 2138   2.462   0.839   2.663
    4AAC     C7 2139   2.520   0.825   2.599
    4AAC     O3 2140   2.535   0.880   2.593
    5AAC     O2 2141   2.749   1.054   2.689
    5AAC     C4 2142   2.774   1.106   2.690
    5AAC     C5 2143   2.800   1.114   2.635
    5AAC     H8 2144   2.827   1.081   2.625
    5AAC     H9 2145   2.824   1.151   2.635
    5AAC    H10 2146   2.769   1.117   2.604
    5AAC     H7 2147   2.744   1.137   2.697
    5AAC     C6 2148   2.816   1.105   2.736
    5AAC    H11 2149   2.845   1.074   2.728
    5AAC    H12 2150   2.837   1.144   2.736
    5AAC     C7 2151   2.789   1.096   2.791
    5AAC     O3 2152   2.831   1.087   2.829
    6AAC     O2 2153   2.768   1.078   3.110
    6AAC     C4 2154   2.785   1.092   3.162
    6AAC     C5 2155   2.838   1.063   3.173
    6AAC     H8 2156   2.833   1.020   3.166
    6AAC     H9 2157   2.851   1.069   3.215
    6AAC    H10 2158   2.870   1.078   3.147
    6AAC     H7 2159   2.792   1.136   3.164
    6AAC     C6 2160   2.740   1.076   3.201
    6AAC    H11 2161   2.734   1.033   3.199
    6AAC    H12 2162   2.753   1.085   3.242
    6AAC     C7 2163   2.687   1.105   3.190
    6AAC     O3 2164   2.647   1.081   3.222
    7AAC     O2 2165   2.397   1.230   3.259
    7AAC     C4 2166   2.346   1.253   3.245
    7AAC     C5 2167   2.333   1.295   3.288
    7AAC     H8 2168   2.335   1.278   3.328
    7AAC     H9 2169   2.293   1.311   3.281
    7AAC    H10 2170   2.362   1.328   3.285
    7AAC     H7 2171   2.349   1.272   3.206
    7AAC     C6 2172   2.305   1.207   3.243
    7AAC    H11 2173   2.302   1.188   3.283
    7AAC    H12 2174   2.265   1.224   3.235
    7AAC     C7 2175   2.318   1.165   3.201
    7AAC     O3 2176   2.283   1.120   3.209
    8AAC     O2 2177   2.358   0.888   3.016
    8AAC     C4 2178   2.400   0.850   3.015
    8AAC     C5 2179   2.453   0.880   3.021
    8AAC     H8 2180   2.456   0.911   2.990
    8AAC     H9 2181   2.487   0.852   3.016
    8AAC    H10 2182   2.456   0.899   3.060
    8AAC     H7 2183   2.395   0.822   3.048
    8AAC     C6 2184   2.396   0.819   2.962
    8AAC    H11 2185   2.401   0.847   2.928
    8AAC    H12 2186   2.429   0.790   2.959
    8AAC     C7 2187   2.342   0.789   2.956
    8AAC     O3 2188   2.339   0.769   2.902
    9AAC     O2 2189   2.200   0.540   2.782
    9AAC     C4 2190   2.188   0.485   2.792
    9AAC     C5 2191   2.236   0.460   2.819
    9AAC     H8 2192   2.273   0.467   2.795
    9AAC     H9 2193   2.231   0.416   2.823
    9AAC    H10 2194   2.242   0.477   2.859
    9AAC     H7 2195   2.153   0.482   2.818
    9AAC     C6 2196   2.175   0.460   2.737
    9AAC    H11 2197   2.210   0.463   2.710
    9AAC    H12 2198   2.167   0.417   2.742
    9AAC     C7 2199   2.126   0.486   2.709
    9AAC     O3 2200   2.123   0.466   2.656
   10AAD     O4 2201   1.911   0.424   2.475
   10AAD     C8 2202   1.858   0.438   2.462
   10AAD     C9 2203   1.854   0.498   2.460
   10AAD    H14 2204   1.888   0.516   2.438
   10AAD    H15 2205   1.817   0.511   2.441
   10AAD    H16 2206   1.855   0.515   2.501
   10AAD    H13 2207   1.830   0.422   2.492
   10AAD    C10 2208   1.846   0.413   2.407
   10AAD    H17 2209   1.820   0.440   2.384
   10AAD    H18 2210   1.883   0.408   2.385
   10AAD    C11 2211   1.818   0.358   2.413
   10AAD     O5 2212   1.833   0.327   2.368
   10AAD     O6 2213   1.787   0.295   2.351
   10AAD    H19 2214   1.802   0.276   2.321
    1AAB      C 2215   3.447   3.369   2.808
    1AAB      O 2216   3.509   3.391   2.789
    1AAB      H 2217   3.524   3.368   2.779
    1AAB     H1 2218   3.439   3.323   2.792
    1AAB     C1 2219   3.406   3.407   2.787
    1AAB     H2 2220   3.439   3.441   2.799
    1AAB     H3 2221   3.403   3.375   2.751
    1AAB     H4 2222   3.404   3.435   2.750
    1AAB     C2 2223   3.348   3.412   2.824
    1AAB     H5 2224   3.346   3.456   2.843
    1AAB     H6 2225   3.350   3.390   2.850
    1AAB     C3 2226   3.312   3.404   2.801
    1AAB     O1 2227   3.272   3.428   2.827
    2AAC     O2 2228   0.250   3.466   2.840
    2AAC     C4 2229   0.199   3.473   2.816
    2AAC     C5 2230   0.179   3.529   2.830
    2AAC     H8 2231   0.180   3.536   2.873
    2AAC     H9 2232   0.138   3.535   2.816
    2AAC    H10 2233   0.204   3.560   2.810
    2AAC     H7 2234   0.202   3.469   2.772
    2AAC     C6 2235   0.162   3.429   2.839
    2AAC    H11 2236   0.159   3.433   2.882
    2AAC    H12 2237   0.122   3.434   2.822
    2AAC     C7 2238   0.182   3.372   2.825
    2AAC     O3 2239   0.151   3.335   2.855
    3AAC     O2 2240   0.194   0.271   2.610
    3AAC     C4 2241   0.172   0.220   2.597
    3AAC     C5 2242   0.116   0.217   2.622
    3AAC     H8 2243   0.118   0.226   2.665
    3AAC     H9 2244   0.100   0.176   2.618
    3AAC    H10 2245   0.089   0.245   2.603
    3AAC     H7 2246   0.169   0.214   2.554
    3AAC     C6 2247   0.211   0.177   2.620
    3AAC    H11 2248   0.214   0.182   2.664
    3AAC    H12 2249   0.195   0.137   2.613
    3AAC     C7 2250   0.267   0.181   2.596
    3AAC     O3 2251   0.302   0.147   2.626
    4AAC     O2 2252   3.410   0.100   2.372
    4AAC     C4 2253   3.449   0.138   2.354
    4AAC     C5 2254   3.503   0.109   2.355
    4AAC     H8 2255   3.511   0.092   2.395
    4AAC     H9 2256   3.536   0.137   2.346
    4AAC    H10 2257   3.504   0.077   2.326
    4AAC     H7 2258   3.440   0.150   2.313
    4AAC     C6 2259   3.447   0.186   2.392
    4AAC    H11 2260   3.456   0.173   2.433
    4AAC    H12 2261   3.478   0.215   2.380
    4AAC     C7 2262   3.392   0.215   2.390
    4AAC     O3 2263   3.391   0.253   2.433
    5AAC     O2 2264   0.052   0.299   2.000
    5AAC     C4 2265   0.009   0.332   2.020
    5AAC     C5 2266  -0.044   0.306   2.003
    5AAC     H8 2267  -0.044   0.299   1.960
    5AAC     H9 2268  -0.077   0.332   2.014
    5AAC    H10 2269  -0.049   0.267   2.023
    5AAC     H7 2270   0.011   0.334   2.064
    5AAC     C6 2271   0.017   0.389   1.996
    5AAC    H11 2272   0.015   0.386   1.953
    5AAC    H12 2273  -0.016   0.414   2.009
    5AAC     C7 2274   0.070   0.414   2.013
    5AAC     O3 2275   0.077   0.462   1.982
    6AAC     O2 2276   3.266   0.665   2.065
    6AAC     C4 2277   3.319   0.679   2.084
    6AAC     C5 2278   3.332   0.735   2.062
    6AAC     H8 2279   3.327   0.736   2.019
    6AAC     H9 2280   3.373   0.746   2.072
    6AAC    H10 2281   3.305   0.765   2.081
    6AAC     H7 2282   3.319   0.679   2.128
    6AAC     C6 2283   3.358   0.636   2.063
    6AAC    H11 2284   3.357   0.635   2.019
    6AAC    H12 2285   3.399   0.646   2.075
    6AAC     C7 2286   3.344   0.579   2.084
    6AAC     O3 2287   3.376   0.542   2.055
    7AAC     O2 2288   3.096   0.773   2.417
    7AAC     C4 2289   3.124   0.782   2.466
    7AAC     C5 2290   3.176   0.749   2.464
    7AAC     H8 2291   3.167   0.707   2.456
    7AAC     H9 2292   3.197   0.752   2.503
    7AAC    H10 2293   3.203   0.764   2.433
    7AAC     H7 2294   3.134   0.825   2.470
    7AAC     C6 2295   3.087   0.766   2.513
    7AAC    H11 2296   3.077   0.723   2.509
    7AAC    H12 2297   3.108   0.771   2.551
    7AAC     C7 2298   3.035   0.799   2.514
    7AAC     O3 2299   3.000   0.774   2.552
    8AAC     O2 2300   2.886   0.817   2.824
    8AAC     C4 2301   2.845   0.812   2.864
    8AAC     C5 2302   2.806   0.858   2.856
    8AAC     H8 2303   2.827   0.897   2.856
    8AAC     H9 2304   2.776   0.859   2.888
    8AAC    H10 2305   2.785   0.854   2.817
    8AAC     H7 2306   2.824   0.774   2.859
    8AAC     C6 2307   2.873   0.813   2.919
    8AAC    H11 2308   2.894   0.852   2.924
    8AAC    H12 2309   2.842   0.811   2.951
    8AAC     C7 2310   2.913   0.767   2.927
    8AAC     O3 2311   2.942   0.777   2.975
    9AAC     O2 2312   3.099   0.556   3.147
    9AAC     C4 2313   3.152   0.555   3.125
    9AAC     C5 2314   3.147   0.566   3.065
    9AAC     H8 2315   3.119   0.538   3.046
    9AAC     H9 2316   3.186   0.562   3.045
    9AAC    H10 2317   3.133   0.607   3.058
    9AAC     H7 2318   3.177   0.586   3.144
    9AAC     C6 2319   3.176   0.499   3.137
    9AAC    H11 2320   3.151   0.468   3.118
    9AAC    H12 2321   3.216   0.497   3.119
    9AAC     C7 2322   3.180   0.488   3.198
    9AAC     O3 2323   3.193   0.433   3.204
   10AAD     O4 2324   3.363   0.385   3.458
   10AAD     C8 2325   3.415   0.364   3.466
   10AAD     C9 2326   3.450   0.408   3.488
   10AAD    H14 2327   3.429   0.428   3.521
   10AAD    H15 2328   3.487   0.391   3.504
   10AAD    H16 2329   3.460   0.437   3.457
   10AAD    H13 2330   3.431   0.350   3.427
   10AAD    C10 2331   3.409   0.316   3.503
   10AAD    H17 2332   3.445   0.315   3.530
   10AAD    H18 2333   3.374   0.322   3.529
   10AAD    C11 2334   3.404   0.263   3.473
   10AAD     O5 2335   3.373   0.228   3.506
   10AAD     O6 2336   3.395   0.174   3.500
   10AAD    H19 2337   3.371   0.155   3.524
    1AAB      C 2338   2.833   2.421   2.042
    1AAB      O 2339   2.845   2.386   2.100
    1AAB      H 2340   2.846   2.405   2.121
    1AAB     H1 2341   2.818   2.467   2.052
    1AAB     C1 2342   2.791   2.391   2.010
    1AAB     H2 2343   2.816   2.352   2.026
    1AAB     H3 2344   2.761   2.422   2.032
    1AAB     H4 2345   2.757   2.363   2.022
    1AAB     C2 2346   2.795   2.400   1.942
    1AAB     H5 2347   2.806   2.358   1.922
    1AAB     H6 2348   2.819   2.421   1.935
    1AAB     C3 2349   2.757   2.414   1.925
    1AAB     O1 2350   2.758   2.399   1.873
    2AAC     O2 2351   2.592   2.448   1.650
    2AAC     C4 2352   2.553   2.470   1.614
    2AAC     C5 2353   2.524   2.423   1.588
    2AAC     H8 2354   2.552   2.395   1.569
    2AAC     H9 2355   2.496   2.438   1.556
    2AAC    H10 2356   2.500   2.401   1.617
    2AAC     H7 2357   2.525   2.495   1.636
    2AAC     C6 2358   2.584   2.505   1.573
    2AAC    H11 2359   2.612   2.480   1.551
    2AAC    H12 2360   2.555   2.521   1.544
    2AAC     C7 2361   2.614   2.551   1.600
    2AAC     O3 2362   2.648   2.575   1.560
    3AAC     O2 2363   2.801   2.789   1.706
    3AAC     C4 2364   2.839   2.832   1.704
    3AAC     C5 2365   2.895   2.806   1.706
    3AAC     H8 2366   2.899   2.779   1.740
    3AAC     H9 2367   2.926   2.837   1.709
    3AAC    H10 2368   2.902   2.783   1.669
    3AAC     H7 2369   2.835   2.855   1.667
    3AAC     C6 2370   2.829   2.869   1.753
    3AAC    H11 2371   2.834   2.845   1.790
    3AAC    H12 2372   2.859   2.900   1.754
    3AAC     C7 2373   2.773   2.894   1.752
    3AAC     O3 2374   2.764   2.919   1.802
    4AAC     O2 2375   2.553   3.096   1.899
    4AAC     C4 2376   2.514   3.138   1.894
    4AAC     C5 2377   2.490   3.147   1.950
    4AAC     H8 2378   2.475   3.110   1.967
    4AAC     H9 2379   2.457   3.176   1.948
    4AAC    H10 2380   2.520   3.164   1.977
    4AAC     H7 2381   2.533   3.175   1.880
    4AAC     C6 2382   2.472   3.119   1.853
    4AAC    H11 2383   2.453   3.082   1.867
    4AAC    H12 2384   2.441   3.149   1.850
    4AAC     C7 2385   2.497   3.109   1.797
    4AAC     O3 2386   2.457   3.083   1.765
    5AAC     O2 2387   2.609   2.996   1.499
    5AAC     C4 2388   2.660   2.999   1.475
    5AAC     C5 2389   2.652   3.013   1.416
    5AAC     H8 2390   2.624   2.985   1.397
    5AAC     H9 2391   2.690   3.011   1.394
    5AAC    H10 2392   2.636   3.053   1.412
    5AAC     H7 2393   2.685   3.030   1.494
    5AAC     C6 2394   2.688   2.944   1.483
    5AAC    H11 2395   2.663   2.913   1.463
    5AAC    H12 2396   2.727   2.944   1.463
    5AAC     C7 2397   2.695   2.929   1.542
    5AAC     O3 2398   2.712   2.875   1.545
    6AAC     O2 2399   2.958   2.852   1.072
    6AAC     C4 2400   2.901   2.848   1.069
    6AAC     C5 2401   2.881   2.833   1.125
    6AAC     H8 2402   2.901   2.796   1.139
    6AAC     H9 2403   2.838   2.825   1.124
    6AAC    H10 2404   2.889   2.865   1.154
    6AAC     H7 2405   2.884   2.887   1.058
    6AAC     C6 2406   2.887   2.806   1.026
    6AAC    H11 2407   2.904   2.768   1.038
    6AAC    H12 2408   2.844   2.801   1.025
    6AAC     C7 2409   2.908   2.822   0.970
    6AAC     O3 2410   2.901   2.777   0.936
    7AAC     O2 2411   2.536   2.722   0.880
    7AAC     C4 2412   2.479   2.728   0.872
    7AAC     C5 2413   2.451   2.684   0.905
    7AAC     H8 2414   2.467   2.644   0.895
    7AAC     H9 2415   2.408   2.684   0.897
    7AAC    H10 2416   2.457   2.691   0.948
    7AAC     H7 2417   2.466   2.767   0.886
    7AAC     C6 2418   2.469   2.723   0.812
    7AAC    H11 2419   2.482   2.683   0.798
    7AAC    H12 2420   2.425   2.725   0.804
    7AAC     C7 2421   2.498   2.766   0.779
    7AAC     O3 2422   2.493   2.753   0.724
    8AAC     O2 2423   2.639   2.967   0.557
    8AAC     C4 2424   2.671   2.954   0.512
    8AAC     C5 2425   2.719   2.922   0.532
    8AAC     H8 2426   2.740   2.944   0.565
    8AAC     H9 2427   2.748   2.915   0.500
    8AAC    H10 2428   2.706   2.883   0.548
    8AAC     H7 2429   2.649   2.930   0.483
    8AAC     C6 2430   2.688   3.008   0.485
    8AAC    H11 2431   2.711   3.032   0.514
    8AAC    H12 2432   2.715   2.999   0.452
    8AAC     C7 2433   2.640   3.040   0.466
    8AAC     O3 2434   2.658   3.092   0.451
    9AAC     O2 2435   2.480   3.374   0.272
    9AAC     C4 2436   2.493   3.336   0.232
    9AAC     C5 2437   2.461   3.351   0.181
    9AAC     H8 2438   2.418   3.353   0.190
    9AAC     H9 2439   2.467   3.320   0.150
    9AAC    H10 2440   2.475   3.389   0.165
    9AAC     H7 2441   2.536   3.338   0.223
    9AAC     C6 2442   2.479   3.280   0.253
    9AAC    H11 2443   2.436   3.278   0.262
    9AAC    H12 2444   2.488   3.250   0.222
    9AAC     C7 2445   2.511   3.266   0.304
    9AAC     O3 2446   2.489   3.217   0.326
   10AAD     O4 2447   2.437   3.086   0.571
   10AAD     C8 2448   2.437   3.036   0.597
   10AAD     C9 2449   2.493   3.013   0.594
   10AAD    H14 2450   2.523   3.044   0.605
   10AAD    H15 2451   2.498   2.979   0.621
   10AAD    H16 2452   2.502   3.000   0.553
   10AAD    H13 2453   2.409   3.008   0.577
   10AAD    C10 2454   2.419   3.045   0.655
   10AAD    H17 2455   2.441   3.017   0.681
   10AAD    H18 2456   2.429   3.085   0.667
   10AAD    C11 2457   2.359   3.035   0.662
   10AAD     O5 2458   2.341   3.069   0.704
   10AAD     O6 2459   2.300   3.040   0.735
   10AAD    H19 2460   2.292   3.067   0.762
    1AAB      C 2461   3.227   1.367   0.962
    1AAB      O 2462   3.262   1.311   0.981
    1AAB      H 2463   3.285   1.310   0.964
    1AAB     H1 2464   3.254   1.396   0.932
    1AAB     C1 2465   3.210   1.397   1.012
    1AAB     H2 2466   3.203   1.351   1.029
    1AAB     H3 2467   3.250   1.422   1.003
    1AAB     H4 2468   3.228   1.400   1.054
    1AAB     C2 2469   3.153   1.433   1.006
    1AAB     H5 2470   3.119   1.414   1.034
    1AAB     H6 2471   3.141   1.431   0.975
    1AAB     C3 2472   3.158   1.475   1.017
    1AAB     O1 2473   3.110   1.493   1.031
    2AAC     O2 2474   2.995   1.743   1.087
    2AAC     C4 2475   2.957   1.786   1.087
    2AAC     C5 2476   2.952   1.806   1.030
    2AAC     H8 2477   2.991   1.817   1.013
    2AAC     H9 2478   2.926   1.842   1.028
    2AAC    H10 2479   2.934   1.775   1.004
    2AAC     H7 2480   2.918   1.771   1.101
    2AAC     C6 2481   2.978   1.829   1.126
    2AAC    H11 2482   3.017   1.844   1.112
    2AAC    H12 2483   2.950   1.863   1.126
    2AAC     C7 2484   2.984   1.808   1.184
    2AAC     O3 2485   3.012   1.848   1.214
    3AAC     O2 2486   3.038   1.887   1.509
    3AAC     C4 2487   3.063   1.852   1.546
    3AAC     C5 2488   3.048   1.794   1.531
    3AAC     H8 2489   3.004   1.790   1.528
    3AAC     H9 2490   3.062   1.766   1.561
    3AAC    H10 2491   3.065   1.784   1.492
    3AAC     H7 2492   3.107   1.856   1.544
    3AAC     C6 2493   3.044   1.867   1.603
    3AAC    H11 2494   3.000   1.863   1.605
    3AAC    H12 2495   3.061   1.840   1.632
    3AAC     C7 2496   3.059   1.925   1.618
    3AAC     O3 2497   3.032   1.938   1.666
    4AAC     O2 2498   3.106   2.065   1.921
    4AAC     C4 2499   3.136   2.102   1.953
    4AAC     C5 2500   3.128   2.087   2.012
    4AAC     H8 2501   3.085   2.085   2.021
    4AAC     H9 2502   3.147   2.116   2.038
    4AAC    H10 2503   3.146   2.048   2.020
    4AAC     H7 2504   3.179   2.099   1.942
    4AAC     C6 2505   3.115   2.159   1.940
    4AAC    H11 2506   3.073   2.161   1.950
    4AAC    H12 2507   3.136   2.188   1.965
    4AAC     C7 2508   3.123   2.173   1.880
    4AAC     O3 2509   3.094   2.222   1.870
    5AAC     O2 2510   3.066   2.530   1.893
    5AAC     C4 2511   3.039   2.577   1.911
    5AAC     C5 2512   2.981   2.573   1.894
    5AAC     H8 2513   2.978   2.566   1.850
    5AAC     H9 2514   2.960   2.611   1.903
    5AAC    H10 2515   2.960   2.540   1.914
    5AAC     H7 2516   3.041   2.579   1.955
    5AAC     C6 2517   3.069   2.625   1.887
    5AAC    H11 2518   3.067   2.623   1.843
    5AAC    H12 2519   3.048   2.662   1.898
    5AAC     C7 2520   3.128   2.628   1.904
    5AAC     O3 2521   3.153   2.668   1.872
    6AAC     O2 2522   3.425   2.739   1.941
    6AAC     C4 2523   3.470   2.774   1.935
    6AAC     C5 2524   3.498   2.759   1.882
    6AAC     H8 2525   3.507   2.716   1.881
    6AAC     H9 2526   3.535   2.782   1.878
    6AAC    H10 2527   3.472   2.769   1.848
    6AAC     H7 2528   3.457   2.815   1.934
    6AAC     C6 2529   3.506   2.765   1.984
    6AAC    H11 2530   3.519   2.723   1.986
    6AAC    H12 2531   3.542   2.790   1.980
    6AAC     C7 2532   3.478   2.779   2.037
    6AAC     O3 2533   3.511   2.761   2.080
    7AAC     O2 2534   3.414   2.702   2.360
    7AAC     C4 2535   3.364   2.697   2.387
    7AAC     C5 2536   3.327   2.740   2.364
    7AAC     H8 2537   3.346   2.780   2.368
    7AAC     H9 2538   3.289   2.741   2.386
    7AAC    H10 2539   3.318   2.733   2.322
    7AAC     H7 2540   3.346   2.657   2.378
    7AAC     C6 2541   3.373   2.703   2.447
    7AAC    H11 2542   3.391   2.742   2.455
    7AAC    H12 2543   3.335   2.701   2.468
    7AAC     C7 2544   3.411   2.659   2.470
    7AAC     O3 2545   3.425   2.673   2.523
    8AAC     O2 2546   3.448   2.509   2.763
    8AAC     C4 2547   3.482   2.473   2.793
    8AAC     C5 2548   3.494   2.426   2.756
    8AAC     H8 2549   3.457   2.408   2.741
    8AAC     H9 2550   3.516   2.395   2.778
    8AAC    H10 2551   3.519   2.438   2.722
    8AAC     H7 2552   3.519   2.493   2.804
    8AAC     C6 2553   3.451   2.456   2.844
    8AAC    H11 2554   3.414   2.436   2.832
    8AAC    H12 2555   3.475   2.427   2.866
    8AAC     C7 2556   3.438   2.505   2.880
    8AAC     O3 2557   3.402   2.487   2.921
    9AAC     O2 2558   3.372   2.593   3.186
    9AAC     C4 2559   3.335   2.615   3.223
    9AAC     C5 2560   3.315   2.668   3.201
    9AAC     H8 2561   3.349   2.694   3.191
    9AAC     H9 2562   3.290   2.689   3.230
    9AAC    H10 2563   3.292   2.662   3.164
    9AAC     H7 2564   3.300   2.588   3.228
    9AAC     C6 2565   3.364   2.621   3.277
    9AAC    H11 2566   3.398   2.648   3.272
    9AAC    H12 2567   3.337   2.639   3.306
    9AAC     C7 2568   3.384   2.566   3.299
    9AAC     O3 2569   3.418   2.577   3.344
   10AAD     O4 2570   3.498   2.382   3.536
   10AAD     C8 2571   3.533   2.349   3.567
   10AAD     C9 2572   3.588   2.374   3.565
   10AAD    H14 2573   3.586   2.417   3.572
   10AAD    H15 2574   3.614   2.356   3.596
   10AAD    H16 2575   3.607   2.368   3.526
   10AAD    H13 2576   3.534   2.309   3.550
   10AAD    C10 2577   3.510   2.347   3.623
   10AAD    H17 2578   3.543   2.346   3.652
   10AAD    H18 2579   3.487   2.383   3.631
   10AAD    C11 2580   3.474   2.298   3.632
   10AAD     O5 2581   3.435   2.312   3.671
   10AAD     O6 2582   3.426   2.266   3.705
   10AAD    H19 2583   3.399   2.281   3.729
    1AAB      C 2584   3.001   2.153   3.168
    1AAB      O 2585   3.054   2.110   3.167
    1AAB      H 2586   3.057   2.100   3.140
    1AAB     H1 2587   2.988   2.166   3.121
    1AAB     C1 2588   3.016   2.202   3.200
    1AAB     H2 2589   3.038   2.169   3.229
    1AAB     H3 2590   3.027   2.220   3.156
    1AAB     H4 2591   3.056   2.222   3.208
    1AAB     C2 2592   2.964   2.234   3.230
    1AAB     H5 2593   2.969   2.230   3.278
    1AAB     H6 2594   2.935   2.219   3.222
    1AAB     C3 2595   2.961   2.276   3.220
    1AAB     O1 2596   2.935   2.300   3.260
    2AAC     O2 2597   2.740   2.665   3.297
    2AAC     C4 2598   2.757   2.614   3.316
    2AAC     C5 2599   2.748   2.613   3.377
    2AAC     H8 2600   2.768   2.647   3.396
    2AAC     H9 2601   2.765   2.576   3.393
    2AAC    H10 2602   2.706   2.615   3.386
    2AAC     H7 2603   2.733   2.583   3.297
    2AAC     C6 2604   2.817   2.607   3.300
    2AAC    H11 2605   2.840   2.639   3.319
    2AAC    H12 2606   2.831   2.569   3.315
    2AAC     C7 2607   2.825   2.609   3.239
    2AAC     O3 2608   2.881   2.612   3.229
    3AAC     O2 2609   2.676   2.795   0.130
    3AAC     C4 2610   2.678   2.774   0.077
    3AAC     C5 2611   2.726   2.797   0.049
    3AAC     H8 2612   2.726   2.841   0.051
    3AAC     H9 2613   2.727   2.785   0.007
    3AAC    H10 2614   2.763   2.783   0.067
    3AAC     H7 2615   2.681   2.730   0.079
    3AAC     C6 2616   2.624   2.789   0.050
    3AAC    H11 2617   2.621   2.833   0.049
    3AAC    H12 2618   2.625   2.774   0.009
    3AAC     C7 2619   2.575   2.765   0.079
    3AAC     O3 2620   2.528   2.789   0.057
    4AAC     O2 2621   2.654   2.527   0.425
    4AAC     C4 2622   2.636   2.555   0.471
    4AAC     C5 2623   2.633   2.615   0.456
    4AAC     H8 2624   2.671   2.629   0.439
    4AAC     H9 2625   2.623   2.639   0.491
    4AAC    H10 2626   2.602   2.621   0.425
    4AAC     H7 2627   2.597   2.541   0.483
    4AAC     C6 2628   2.677   2.545   0.516
    4AAC    H11 2629   2.716   2.559   0.504
    4AAC    H12 2630   2.665   2.568   0.552
    4AAC     C7 2631   2.680   2.485   0.531
    4AAC     O3 2632   2.725   2.478   0.566
    5AAC     O2 2633   2.823   2.448   0.953
    5AAC     C4 2634   2.800   2.399   0.934
    5AAC     C5 2635   2.805   2.398   0.873
    5AAC     H8 2636   2.787   2.435   0.856
    5AAC     H9 2637   2.784   2.364   0.856
    5AAC    H10 2638   2.847   2.397   0.861
    5AAC     H7 2639   2.822   2.365   0.951
    5AAC     C6 2640   2.741   2.397   0.953
    5AAC    H11 2641   2.720   2.431   0.937
    5AAC    H12 2642   2.722   2.361   0.938
    5AAC     C7 2643   2.737   2.398   1.015
    5AAC     O3 2644   2.682   2.406   1.028
    6AAC     O2 2645   2.552   2.584   1.252
    6AAC     C4 2646   2.495   2.583   1.259
    6AAC     C5 2647   2.470   2.574   1.204
    6AAC     H8 2648   2.484   2.603   1.175
    6AAC     H9 2649   2.426   2.577   1.206
    6AAC    H10 2650   2.480   2.533   1.189
    6AAC     H7 2651   2.484   2.551   1.286
    6AAC     C6 2652   2.479   2.638   1.283
    6AAC    H11 2653   2.490   2.670   1.256
    6AAC    H12 2654   2.435   2.639   1.288
    6AAC     C7 2655   2.505   2.647   1.338
    6AAC     O3 2656   2.495   2.702   1.353
    7AAC     O2 2657   2.557   2.732   1.693
    7AAC     C4 2658   2.515   2.764   1.713
    7AAC     C5 2659   2.525   2.772   1.773
    7AAC     H8 2660   2.529   2.733   1.793
    7AAC     H9 2661   2.491   2.794   1.791
    7AAC    H10 2662   2.561   2.795   1.780
    7AAC     H7 2663   2.515   2.803   1.693
    7AAC     C6 2664   2.462   2.736   1.701
    7AAC    H11 2665   2.461   2.696   1.721
    7AAC    H12 2666   2.428   2.759   1.718
    7AAC     C7 2667   2.452   2.727   1.641
    7AAC     O3 2668   2.407   2.693   1.634
    8AAC     O2 2669   2.259   2.519   1.468
    8AAC     C4 2670   2.224   2.474   1.465
    8AAC     C5 2671   2.256   2.424   1.481
    8AAC     H8 2672   2.292   2.420   1.457
    8AAC     H9 2673   2.231   2.388   1.475
    8AAC    H10 2674   2.267   2.426   1.524
    8AAC     H7 2675   2.190   2.479   1.492
    8AAC     C6 2676   2.204   2.471   1.406
    8AAC    H11 2677   2.238   2.465   1.379
    8AAC    H12 2678   2.178   2.436   1.402
    8AAC     C7 2679   2.172   2.521   1.390
    8AAC     O3 2680   2.163   2.519   1.333
    9AAC     O2 2681   1.947   2.701   1.225
    9AAC     C4 2682   1.940   2.734   1.179
    9AAC     C5 2683   1.888   2.767   1.188
    9AAC     H8 2684   1.854   2.740   1.197
    9AAC     H9 2685   1.879   2.790   1.152
    9AAC    H10 2686   1.893   2.795   1.221
    9AAC     H7 2687   1.974   2.761   1.175
    9AAC     C6 2688   1.936   2.697   1.130
    9AAC    H11 2689   1.902   2.670   1.135
    9AAC    H12 2690   1.929   2.721   1.094
    9AAC     C7 2691   1.988   2.664   1.122
    9AAC     O3 2692   1.977   2.624   1.082
   10AAD     O4 2693   2.233   2.431   1.157
   10AAD     C8 2694   2.244   2.409   1.105
   10AAD     C9 2695   2.257   2.455   1.068
   10AAD    H14 2696   2.285   2.483   1.087
   10AAD    H15 2697   2.276   2.440   1.031
   10AAD    H16 2698   2.221   2.477   1.057
   10AAD    H13 2699   2.210   2.386   1.090
   10AAD    C10 2700   2.291   2.370   1.112
   10AAD    H17 2701   2.317   2.373   1.077
   10AAD    H18 2702   2.315   2.383   1.147
   10AAD    C11 2703   2.273   2.312   1.121
   10AAD     O5 2704   2.312   2.286   1.152
   10AAD     O6 2705   2.318   2.232   1.133
   10AAD    H19 2706   2.345   2.219   1.158
    1AAB      C 2707   0.226  -0.050   1.811
    1AAB      O 2708   0.269  -0.057   1.864
    1AAB      H 2709   0.290  -0.075   1.856
    1AAB     H1 2710   0.247  -0.066   1.769
    1AAB     C1 2711   0.212   0.009   1.806
    1AAB     H2 2712   0.211   0.007   1.856
    1AAB     H3 2713   0.248   0.009   1.774
    1AAB     H4 2714   0.234   0.047   1.818
    1AAB     C2 2715   0.150   0.022   1.779
    1AAB     H5 2716   0.122   0.041   1.812
    1AAB     H6 2717   0.136  -0.007   1.770
    1AAB     C3 2718   0.152   0.048   1.745
    1AAB     O1 2719   0.104   0.071   1.740
    2AAC     O2 2720   0.103   0.185   1.358
    2AAC     C4 2721   0.137   0.221   1.386
    2AAC     C5 2722   0.134   0.207   1.445
    2AAC     H8 2723   0.092   0.207   1.459
    2AAC     H9 2724   0.155   0.237   1.469
    2AAC    H10 2725   0.151   0.168   1.453
    2AAC     H7 2726   0.179   0.217   1.372
    2AAC     C6 2727   0.117   0.279   1.373
    2AAC    H11 2728   0.076   0.283   1.387
    2AAC    H12 2729   0.141   0.307   1.396
    2AAC     C7 2730   0.121   0.292   1.313
    2AAC     O3 2731   0.093   0.341   1.305
    3AAC     O2 2732   0.106   0.370   1.000
    3AAC     C4 2733   0.115   0.402   0.953
    3AAC     C5 2734   0.060   0.417   0.930
    3AAC     H8 2735   0.036   0.381   0.924
    3AAC     H9 2736   0.065   0.437   0.892
    3AAC    H10 2737   0.039   0.444   0.958
    3AAC     H7 2738   0.137   0.438   0.963
    3AAC     C6 2739   0.148   0.368   0.914
    3AAC    H11 2740   0.126   0.331   0.904
    3AAC    H12 2741   0.154   0.390   0.876
    3AAC     C7 2742   0.204   0.352   0.937
    3AAC     O3 2743   0.227   0.314   0.902
    4AAC     O2 2744   0.489   0.210   1.001
    4AAC     C4 2745   0.543   0.204   0.984
    4AAC     C5 2746   0.559   0.145   0.991
    4AAC     H8 2747   0.550   0.131   1.032
    4AAC     H9 2748   0.601   0.138   0.982
    4AAC    H10 2749   0.535   0.119   0.963
    4AAC     H7 2750   0.547   0.215   0.942
    4AAC     C6 2751   0.578   0.241   1.019
    4AAC    H11 2752   0.574   0.230   1.061
    4AAC    H12 2753   0.620   0.236   1.008
    4AAC     C7 2754   0.563   0.301   1.012
    4AAC     O3 2755   0.590   0.330   1.052
    5AAC     O2 2756   0.450   3.470   1.296
    5AAC     C4 2757   0.433   3.524   1.303
    5AAC     C5 2758   0.424   3.549   1.248
    5AAC     H8 2759   0.460   3.543   1.222
    5AAC     H9 2760   0.416   3.592   1.251
    5AAC    H10 2761   0.390   3.529   1.228
    5AAC     H7 2762   0.396   3.526   1.326
    5AAC     C6 2763   0.478   3.553   1.335
    5AAC    H11 2764   0.516   3.551   1.311
    5AAC    H12 2765   0.468   3.595   1.339
    5AAC     C7 2766   0.488   3.528   1.390
    5AAC     O3 2767   0.535   3.551   1.412
    6AAC     O2 2768   0.385   3.355   1.673
    6AAC     C4 2769   0.369   3.313   1.708
    6AAC     C5 2770   0.362   3.336   1.764
    6AAC     H8 2771   0.399   3.358   1.776
    6AAC     H9 2772   0.355   3.304   1.793
    6AAC    H10 2773   0.328   3.364   1.765
    6AAC     H7 2774   0.331   3.295   1.694
    6AAC     C6 2775   0.413   3.270   1.705
    6AAC    H11 2776   0.451   3.287   1.719
    6AAC    H12 2777   0.404   3.237   1.733
    6AAC     C7 2778   0.420   3.247   1.648
    6AAC     O3 2779   0.468   3.215   1.648
    7AAC     O2 2780   0.593   3.192   1.374
    7AAC     C4 2781   0.588   3.177   1.319
    7AAC     C5 2782   0.566   3.119   1.317
    7AAC     H8 2783   0.591   3.092   1.342
    7AAC     H9 2784   0.566   3.104   1.276
    7AAC    H10 2785   0.525   3.118   1.332
    7AAC     H7 2786   0.561   3.203   1.298
    7AAC     C6 2787   0.645   3.181   1.295
    7AAC    H11 2788   0.672   3.154   1.316
    7AAC    H12 2789   0.644   3.168   1.253
    7AAC     C7 2790   0.667   3.238   1.297
    7AAC     O3 2791   0.722   3.236   1.282
    8AAC     O2 2792   0.873   3.478   1.221
    8AAC     C4 2793   0.912   3.499   1.186
    8AAC     C5 2794   0.958   3.520   1.221
    8AAC     H8 2795   0.943   3.548   1.251
    8AAC     H9 2796   0.988   3.541   1.196
    8AAC    H10 2797   0.978   3.487   1.242
    8AAC     H7 2798   0.927   3.468   1.159
    8AAC     C6 2799   0.886   3.544   1.153
    8AAC    H11 2800   0.871   3.575   1.180
    8AAC    H12 2801   0.916   3.562   1.127
    8AAC     C7 2802   0.839   3.523   1.118
    8AAC     O3 2803   0.812   3.568   1.097
    9AAC     O2 2804   0.547   3.397   1.010
    9AAC     C4 2805   0.501   3.407   0.978
    9AAC     C5 2806   0.458   3.367   0.995
    9AAC     H8 2807   0.473   3.326   0.993
    9AAC     H9 2808   0.423   3.370   0.968
    9AAC    H10 2809   0.445   3.374   1.036
    9AAC     H7 2810   0.486   3.448   0.985
    9AAC     C6 2811   0.518   3.401   0.919
    9AAC    H11 2812   0.532   3.360   0.912
    9AAC    H12 2813   0.482   3.407   0.893
    9AAC     C7 2814   0.561   3.441   0.903
    9AAC     O3 2815   0.580   3.427   0.851
   10AAD     O4 2816   0.826   3.613   0.833
   10AAD     C8 2817   0.878   3.617   0.810
   10AAD     C9 2818   0.873   3.599   0.752
   10AAD    H14 2819   0.839   3.618   0.733
   10AAD    H15 2820   0.909   3.610   0.730
   10AAD    H16 2821   0.868   3.555   0.750
   10AAD    H13 2822   0.906   3.591   0.832
   10AAD    C10 2823   0.895   3.675   0.815
   10AAD    H17 2824   0.918   3.686   0.780
   10AAD    H18 2825   0.860   3.701   0.817
   10AAD    C11 2826   0.929   3.684   0.865
   10AAD     O5 2827   0.921   3.738   0.882
   10AAD     O6 2828   0.972   3.760   0.901
   10AAD    H19 2829   0.960   3.795   0.911
    1AAB      C 2830   1.052   2.176   0.594
    1AAB      O 2831   1.104   2.190   0.636
    1AAB      H 2832   1.128   2.191   0.620
    1AAB     H1 2833   1.066   2.182   0.546
    1AAB     C1 2834   1.006   2.213   0.607
    1AAB     H2 2835   1.020   2.205   0.653
    1AAB     H3 2836   1.024   2.240   0.571
    1AAB     H4 2837   1.003   2.255   0.625
    1AAB     C2 2838   0.943   2.188   0.593
    1AAB     H5 2839   0.920   2.182   0.634
    1AAB     H6 2840   0.946   2.159   0.578
    1AAB     C3 2841   0.920   2.215   0.567
    1AAB     O1 2842   0.869   2.203   0.576
    2AAC     O2 2843   0.609   2.203   0.468
    2AAC     C4 2844   0.576   2.192   0.423
    2AAC     C5 2845   0.598   2.224   0.376
    2AAC     H8 2846   0.602   2.266   0.386
    2AAC     H9 2847   0.571   2.220   0.341
    2AAC    H10 2848   0.637   2.208   0.364
    2AAC     H7 2849   0.576   2.149   0.414
    2AAC     C6 2850   0.518   2.209   0.438
    2AAC    H11 2851   0.518   2.252   0.448
    2AAC    H12 2852   0.492   2.203   0.404
    2AAC     C7 2853   0.496   2.178   0.487
    2AAC     O3 2854   0.447   2.203   0.503
    3AAC     O2 2855   0.210   2.091   0.639
    3AAC     C4 2856   0.192   2.073   0.690
    3AAC     C5 2857   0.137   2.047   0.683
    3AAC     H8 2858   0.110   2.075   0.662
    3AAC     H9 2859   0.119   2.037   0.722
    3AAC    H10 2860   0.140   2.011   0.659
    3AAC     H7 2861   0.220   2.044   0.707
    3AAC     C6 2862   0.190   2.123   0.728
    3AAC    H11 2863   0.162   2.152   0.711
    3AAC    H12 2864   0.175   2.111   0.767
    3AAC     C7 2865   0.246   2.149   0.735
    3AAC     O3 2866   0.238   2.199   0.761
    4AAC     O2 2867   0.524   2.316   0.690
    4AAC     C4 2868   0.561   2.356   0.673
    4AAC     C5 2869   0.601   2.329   0.636
    4AAC     H8 2870   0.619   2.293   0.655
    4AAC     H9 2871   0.633   2.356   0.625
    4AAC    H10 2872   0.581   2.315   0.599
    4AAC     H7 2873   0.540   2.388   0.652
    4AAC     C6 2874   0.588   2.379   0.724
    4AAC    H11 2875   0.609   2.347   0.746
    4AAC    H12 2876   0.618   2.408   0.712
    4AAC     C7 2877   0.547   2.406   0.762
    4AAC     O3 2878   0.574   2.417   0.811
    5AAC     O2 2879   0.395   2.530   1.014
    5AAC     C4 2880   0.355   2.557   1.045
    5AAC     C5 2881   0.372   2.616   1.049
    5AAC     H8 2882   0.413   2.620   1.064
    5AAC     H9 2883   0.345   2.638   1.076
    5AAC    H10 2884   0.370   2.635   1.009
    5AAC     H7 2885   0.316   2.554   1.026
    5AAC     C6 2886   0.353   2.530   1.101
    5AAC    H11 2887   0.392   2.533   1.120
    5AAC    H12 2888   0.324   2.551   1.126
    5AAC     C7 2889   0.337   2.470   1.097
    5AAC     O3 2890   0.345   2.447   1.148
    6AAC     O2 2891   0.239   2.154   1.231
    6AAC     C4 2892   0.269   2.117   1.200
    6AAC     C5 2893   0.276   2.142   1.144
    6AAC     H8 2894   0.237   2.154   1.127
    6AAC     H9 2895   0.295   2.113   1.117
    6AAC    H10 2896   0.302   2.177   1.147
    6AAC     H7 2897   0.308   2.109   1.218
    6AAC     C6 2898   0.236   2.064   1.198
    6AAC    H11 2899   0.197   2.072   1.179
    6AAC    H12 2900   0.257   2.035   1.172
    6AAC     C7 2901   0.228   2.039   1.254
    6AAC     O3 2902   0.190   1.997   1.248
    7AAC     O2 2903   0.232   1.700   1.304
    7AAC     C4 2904   0.214   1.646   1.307
    7AAC     C5 2905   0.227   1.626   1.364
    7AAC     H8 2906   0.269   1.632   1.373
    7AAC     H9 2907   0.217   1.583   1.368
    7AAC    H10 2908   0.203   1.648   1.394
    7AAC     H7 2909   0.171   1.644   1.301
    7AAC     C6 2910   0.243   1.613   1.263
    7AAC    H11 2911   0.286   1.615   1.270
    7AAC    H12 2912   0.231   1.571   1.266
    7AAC     C7 2913   0.230   1.634   1.207
    7AAC     O3 2914   0.266   1.608   1.170
    8AAC     O2 2915   0.272   1.701   0.865
    8AAC     C4 2916   0.262   1.758   0.862
    8AAC     C5 2917   0.203   1.765   0.845
    8AAC     H8 2918   0.194   1.743   0.809
    8AAC     H9 2919   0.195   1.808   0.838
    8AAC    H10 2920   0.176   1.751   0.877
    8AAC     H7 2921   0.269   1.776   0.901
    8AAC     C6 2922   0.301   1.781   0.820
    8AAC    H11 2923   0.294   1.762   0.781
    8AAC    H12 2924   0.294   1.824   0.815
    8AAC     C7 2925   0.360   1.773   0.837
    8AAC     O3 2926   0.393   1.787   0.792
    9AAC     O2 2927   3.420   1.682   0.871
    9AAC     C4 2928   3.473   1.690   0.890
    9AAC     C5 2929   3.498   1.736   0.858
    9AAC     H8 2930   3.495   1.727   0.815
    9AAC     H9 2931   3.540   1.741   0.869
    9AAC    H10 2932   3.477   1.773   0.867
    9AAC     H7 2933   3.472   1.701   0.933
    9AAC     C6 2934   3.504   1.637   0.883
    9AAC    H11 2935   3.505   1.626   0.841
    9AAC    H12 2936   3.546   1.642   0.896
    9AAC     C7 2937   3.479   1.590   0.916
    9AAC     O3 2938   3.504   1.542   0.899
   10AAD     O4 2939   3.494   1.265   0.900
   10AAD     C8 2940   3.475   1.215   0.922
   10AAD     C9 2941   3.414   1.217   0.920
   10AAD    H14 2942   3.400   1.230   0.881
   10AAD    H15 2943   3.398   1.176   0.928
   10AAD    H16 2944   3.398   1.244   0.951
   10AAD    H13 2945   3.488   1.211   0.964
   10AAD    C10 2946   3.498   1.170   0.888
   10AAD    H17 2947   3.469   1.138   0.885
   10AAD    H18 2948   3.506   1.185   0.848
   10AAD    C11 2949   3.550   1.148   0.912
   10AAD     O5 2950   3.582   1.129   0.869
   10AAD     O6 2951   3.609   1.080   0.887
   10AAD    H19 2952   3.629   1.072   0.854
    1AAB      C 2953   1.445   2.823   2.974
    1AAB      O 2954   1.446   2.888   2.953
    1AAB      H 2955   1.460   2.889   2.928
    1AAB     H1 2956   1.460   2.792   2.938
    1AAB     C1 2957   1.390   2.809   2.992
    1AAB     H2 2958   1.391   2.855   3.011
    1AAB     H3 2959   1.385   2.792   2.948
    1AAB     H4 2960   1.348   2.825   2.981
    1AAB     C2 2961   1.386   2.761   3.041
    1AAB     H5 2962   1.369   2.781   3.081
    1AAB     H6 2963   1.416   2.750   3.048
    1AAB     C3 2964   1.360   2.728   3.030
    1AAB     O1 2965   1.344   2.706   3.076
    2AAC     O2 2966   1.245   2.451   3.160
    2AAC     C4 2967   1.209   2.422   3.193
    2AAC     C5 2968   1.236   2.370   3.209
    2AAC     H8 2969   1.250   2.348   3.174
    2AAC     H9 2970   1.209   2.344   3.231
    2AAC    H10 2971   1.271   2.378   3.235
    2AAC     H7 2972   1.199   2.445   3.229
    2AAC     C6 2973   1.157   2.412   3.160
    2AAC    H11 2974   1.167   2.389   3.124
    2AAC    H12 2975   1.129   2.389   3.184
    2AAC     C7 2976   1.130   2.465   3.144
    2AAC     O3 2977   1.088   2.452   3.106
    3AAC     O2 2978   0.986   2.704   2.981
    3AAC     C4 2979   0.948   2.740   2.960
    3AAC     C5 2980   0.941   2.726   2.900
    3AAC     H8 2981   0.980   2.726   2.880
    3AAC     H9 2982   0.915   2.755   2.880
    3AAC    H10 2983   0.924   2.686   2.895
    3AAC     H7 2984   0.909   2.734   2.980
    3AAC     C6 2985   0.968   2.797   2.969
    3AAC    H11 2986   1.007   2.802   2.948
    3AAC    H12 2987   0.940   2.826   2.951
    3AAC     C7 2988   0.975   2.810   3.029
    3AAC     O3 2989   1.003   2.860   3.032
    4AAC     O2 2990   1.063   3.073   3.203
    4AAC     C4 2991   1.066   3.112   3.245
    4AAC     C5 2992   1.066   3.168   3.218
    4AAC     H8 2993   1.098   3.170   3.188
    4AAC     H9 2994   1.073   3.199   3.248
    4AAC    H10 2995   1.028   3.176   3.199
    4AAC     H7 2996   1.031   3.109   3.271
    4AAC     C6 2997   1.118   3.101   3.277
    4AAC    H11 2998   1.152   3.104   3.250
    4AAC    H12 2999   1.122   3.131   3.308
    4AAC     C7 3000   1.117   3.045   3.302
    4AAC     O3 3001   1.169   3.035   3.323
    5AAC     O2 3002   1.223   2.771   3.450
    5AAC     C4 3003   1.214   2.715   3.444
    5AAC     C5 3004   1.154   2.706   3.436
    5AAC     H8 3005   1.131   2.725   3.468
    5AAC     H9 3006   1.145   2.663   3.436
    5AAC    H10 3007   1.142   2.723   3.398
    5AAC     H7 3008   1.237   2.699   3.410
    5AAC     C6 3009   1.235   2.687   3.496
    5AAC    H11 3010   1.213   2.703   3.530
    5AAC    H12 3011   1.228   2.644   3.493
    5AAC     C7 3012   1.296   2.697   3.504
    5AAC     O3 3013   1.309   2.678   3.557
    6AAC     O2 3014   1.645   2.623   3.684
    6AAC     C4 3015   1.609   2.580   3.695
    6AAC     C5 3016   1.622   2.560   3.751
    6AAC     H8 3017   1.665   2.550   3.755
    6AAC     H9 3018   1.599   2.524   3.761
    6AAC    H10 3019   1.613   2.591   3.781
    6AAC     H7 3020   1.568   2.594   3.694
    6AAC     C6 3021   1.618   2.537   3.652
    6AAC    H11 3022   1.659   2.523   3.653
    6AAC    H12 3023   1.592   2.503   3.660
    6AAC     C7 3024   1.605   2.558   3.595
    6AAC     O3 3025   1.623   2.518   3.558
    7AAC     O2 3026   1.644   2.423   0.527
    7AAC     C4 3027   1.626   2.411   0.474
    7AAC     C5 3028   1.655   2.361   0.455
    7AAC     H8 3029   1.699   2.365   0.460
    7AAC     H9 3030   1.646   2.353   0.413
    7AAC    H10 3031   1.643   2.326   0.479
    7AAC     H7 3032   1.583   2.404   0.474
    7AAC     C6 3033   1.639   2.461   0.439
    7AAC    H11 3034   1.682   2.468   0.439
    7AAC    H12 3035   1.627   2.452   0.398
    7AAC     C7 3036   1.610   2.511   0.459
    7AAC     O3 3037   1.631   2.556   0.430
    8AAC     O2 3038   1.371   2.701   0.660
    8AAC     C4 3039   1.328   2.722   0.630
    8AAC     C5 3040   1.348   2.727   0.571
    8AAC     H8 3041   1.385   2.750   0.570
    8AAC     H9 3042   1.318   2.748   0.547
    8AAC    H10 3043   1.354   2.687   0.554
    8AAC     H7 3044   1.293   2.696   0.631
    8AAC     C6 3045   1.314   2.777   0.654
    8AAC    H11 3046   1.349   2.804   0.652
    8AAC    H12 3047   1.282   2.796   0.630
    8AAC     C7 3048   1.295   2.772   0.713
    8AAC     O3 3049   1.291   2.825   0.734
    9AAC     O2 3050   1.124   2.933   0.947
    9AAC     C4 3051   1.131   2.979   0.979
    9AAC     C5 3052   1.136   2.960   1.037
    9AAC     H8 3053   1.102   2.935   1.049
    9AAC     H9 3054   1.138   2.994   1.065
    9AAC    H10 3055   1.173   2.936   1.043
    9AAC     H7 3056   1.168   3.000   0.968
    9AAC     C6 3057   1.083   3.016   0.971
    9AAC    H11 3058   1.046   2.995   0.983
    9AAC    H12 3059   1.087   3.051   0.997
    9AAC     C7 3060   1.078   3.035   0.912
    9AAC     O3 3061   1.027   3.061   0.907
   10AAD     O4 3062   1.169   3.122   0.604
   10AAD     C8 3063   1.210   3.123   0.564
   10AAD     C9 3064   1.228   3.066   0.555
   10AAD    H14 3065   1.193   3.039   0.551
   10AAD    H15 3066   1.252   3.063   0.518
   10AAD    H16 3067   1.252   3.052   0.588
   10AAD    H13 3068   1.244   3.148   0.577
   10AAD    C10 3069   1.186   3.148   0.513
   10AAD    H17 3070   1.202   3.128   0.478
   10AAD    H18 3071   1.142   3.142   0.513
   10AAD    C11 3072   1.197   3.208   0.510
   10AAD     O5 3073   1.154   3.232   0.481
   10AAD     O6 3074   1.175   3.275   0.447
   10AAD    H19 3075   1.142   3.287   0.431
    1AAB      C 3076   2.766   0.823   0.640
    1AAB      O 3077   2.718   0.787   0.672
    1AAB      H 3078   2.695   0.805   0.676
    1AAB     H1 3079   2.748   0.866   0.622
    1AAB     C1 3080   2.789   0.790   0.595
    1AAB     H2 3081   2.784   0.753   0.628
    1AAB     H3 3082   2.757   0.814   0.569
    1AAB     H4 3083   2.771   0.756   0.570
    1AAB     C2 3084   2.854   0.802   0.579
    1AAB     H5 3085   2.881   0.764   0.590
    1AAB     H6 3086   2.865   0.828   0.597
    1AAB     C3 3087   2.860   0.812   0.537
    1AAB     O1 3088   2.910   0.800   0.525
    2AAC     O2 3089   3.136   0.886   0.382
    2AAC     C4 3090   3.166   0.926   0.355
    2AAC     C5 3091   3.136   0.939   0.302
    2AAC     H8 3092   3.129   0.902   0.280
    2AAC     H9 3093   3.160   0.966   0.278
    2AAC    H10 3094   3.098   0.957   0.311
    2AAC     H7 3095   3.169   0.962   0.379
    2AAC     C6 3096   3.223   0.904   0.345
    2AAC    H11 3097   3.220   0.867   0.320
    2AAC    H12 3098   3.246   0.933   0.322
    2AAC     C7 3099   3.252   0.891   0.397
    2AAC     O3 3100   3.300   0.862   0.384
    3AAC     O2 3101   3.643   0.824   0.560
    3AAC     C4 3102   3.614   0.856   0.597
    3AAC     C5 3103   3.625   0.835   0.653
    3AAC     H8 3104   3.616   0.792   0.655
    3AAC     H9 3105   3.600   0.855   0.683
    3AAC    H10 3106   3.667   0.840   0.664
    3AAC     H7 3107   3.627   0.898   0.594
    3AAC     C6 3108   3.554   0.853   0.582
    3AAC    H11 3109   3.540   0.812   0.584
    3AAC    H12 3110   3.530   0.876   0.611
    3AAC     C7 3111   3.543   0.875   0.525
    3AAC     O3 3112   3.489   0.862   0.511
    4AAC     O2 3113   0.400   0.809   0.404
    4AAC     C4 3114   0.347   0.787   0.399
    4AAC     C5 3115   0.337   0.778   0.339
    4AAC     H8 3116   0.343   0.815   0.317
    4AAC     H9 3117   0.296   0.765   0.333
    4AAC    H10 3118   0.364   0.748   0.323
    4AAC     H7 3119   0.346   0.748   0.420
    4AAC     C6 3120   0.307   0.826   0.425
    4AAC    H11 3121   0.309   0.865   0.404
    4AAC    H12 3122   0.267   0.811   0.420
    4AAC     C7 3123   0.319   0.835   0.485
    4AAC     O3 3124   0.286   0.878   0.503
    5AAC     O2 3125   0.229   0.972   0.761
    5AAC     C4 3126   0.201   0.989   0.808
    5AAC     C5 3127   0.158   1.030   0.791
    5AAC     H8 3128   0.176   1.062   0.768
    5AAC     H9 3129   0.139   1.047   0.827
    5AAC    H10 3130   0.128   1.010   0.767
    5AAC     H7 3131   0.182   0.955   0.828
    5AAC     C6 3132   0.243   1.014   0.847
    5AAC    H11 3133   0.262   1.048   0.827
    5AAC    H12 3134   0.223   1.029   0.883
    5AAC     C7 3135   0.286   0.973   0.863
    5AAC     O3 3136   0.327   1.001   0.891
    6AAC     O2 3137   0.549   0.864   1.085
    6AAC     C4 3138   0.595   0.843   1.057
    6AAC     C5 3139   0.587   0.853   0.997
    6AAC     H8 3140   0.548   0.836   0.984
    6AAC     H9 3141   0.618   0.833   0.974
    6AAC    H10 3142   0.587   0.896   0.989
    6AAC     H7 3143   0.631   0.863   1.070
    6AAC     C6 3144   0.599   0.782   1.071
    6AAC    H11 3145   0.562   0.762   1.058
    6AAC    H12 3146   0.632   0.765   1.049
    6AAC     C7 3147   0.606   0.773   1.131
    6AAC     O3 3148   0.600   0.717   1.141
    7AAC     O2 3149   0.539   0.519   1.339
    7AAC     C4 3150   0.509   0.495   1.381
    7AAC     C5 3151   0.478   0.540   1.409
    7AAC     H8 3152   0.506   0.573   1.421
    7AAC     H9 3153   0.458   0.525   1.445
    7AAC    H10 3154   0.448   0.557   1.382
    7AAC     H7 3155   0.481   0.466   1.366
    7AAC     C6 3156   0.549   0.467   1.419
    7AAC    H11 3157   0.577   0.497   1.435
    7AAC    H12 3158   0.527   0.450   1.453
    7AAC     C7 3159   0.580   0.422   1.391
    7AAC     O3 3160   0.622   0.405   1.426
    8AAC     O2 3161   0.761   0.159   1.448
    8AAC     C4 3162   0.806   0.124   1.441
    8AAC     C5 3163   0.786   0.074   1.412
    8AAC     H8 3164   0.752   0.056   1.434
    8AAC     H9 3165   0.818   0.044   1.410
    8AAC    H10 3166   0.773   0.083   1.372
    8AAC     H7 3167   0.836   0.144   1.416
    8AAC     C6 3168   0.829   0.112   1.497
    8AAC    H11 3169   0.798   0.093   1.522
    8AAC    H12 3170   0.863   0.085   1.493
    8AAC     C7 3171   0.848   0.164   1.526
    8AAC     O3 3172   0.860   0.150   1.580
    9AAC     O2 3173   0.988   0.384   1.777
    9AAC     C4 3174   0.973   0.377   1.832
    9AAC     C5 3175   0.957   0.319   1.840
    9AAC     H8 3176   0.926   0.308   1.811
    9AAC     H9 3177   0.940   0.313   1.880
    9AAC    H10 3178   0.991   0.292   1.834
    9AAC     H7 3179   1.007   0.387   1.858
    9AAC     C6 3180   0.927   0.417   1.843
    9AAC    H11 3181   0.893   0.408   1.817
    9AAC    H12 3182   0.913   0.412   1.885
    9AAC     C7 3183   0.944   0.476   1.835
    9AAC     O3 3184   0.897   0.508   1.837
   10AAD     O4 3185   0.983   3.533   2.014
   10AAD     C8 3186   0.967   3.581   2.040
   10AAD     C9 3187   0.983   3.576   2.099
   10AAD    H14 3188   1.024   3.562   2.102
   10AAD    H15 3189   0.980   3.615   2.119
   10AAD    H16 3190   0.957   3.548   2.119
   10AAD    H13 3191   0.923   3.586   2.038
   10AAD    C10 3192   0.995   3.628   2.013
   10AAD    H17 3193   1.006   3.658   2.043
   10AAD    H18 3194   1.032   3.614   1.994
   10AAD    C11 3195   0.960   3.653   1.970
   10AAD     O5 3196   0.994   3.675   1.930
   10AAD     O6 3197   0.971   3.725   1.910
   10AAD    H19 3198   0.998   3.735   1.884
3.69856 3.69856 3.69856
