P3HB_10_GMX.gro created by acpype (v: 2023.10.27) on Tue Jun 23 10:37:59 2026
 123
    1  AAB    C    1   0.354   0.142   0.000
    1  AAB    O    2   0.418   0.084   0.113
    1  AAB    H    3   0.346   0.047   0.168
    1  AAB   H1    4   0.295   0.065  -0.050
    1  AAB   C1    5   0.461   0.194  -0.095
    1  AAB   H2    6   0.522   0.271  -0.046
    1  AAB   H3    7   0.416   0.237  -0.185
    1  AAB   H4    8   0.528   0.113  -0.124
    1  AAB   C2    9   0.267   0.257   0.047
    1  AAB   H5   10   0.231   0.310  -0.041
    1  AAB   H6   11   0.326   0.327   0.107
    1  AAB   C3   12   0.153   0.205   0.134
    1  AAB   O1   13   0.144   0.087   0.167
    2  AAC   O2   14   0.031   0.230   0.065
    2  AAC   C4   15  -0.085   0.186   0.135
    2  AAC   C5   16  -0.089   0.260   0.269
    2  AAC   H8   17  -0.178   0.233   0.327
    2  AAC   H9   18  -0.089   0.368   0.254
    2  AAC  H10   19  -0.002   0.233   0.330
    2  AAC   H7   20  -0.085   0.079   0.155
    2  AAC   C6   21  -0.210   0.217   0.055
    2  AAC  H11   22  -0.201   0.324   0.040
    2  AAC  H12   23  -0.300   0.195   0.113
    2  AAC   C7   24  -0.224   0.143  -0.077
    2  AAC   O3   25  -0.159   0.045  -0.111
    3  AAC   O2   26  -0.196   0.236  -0.182
    3  AAC   C4   27  -0.206   0.180  -0.312
    3  AAC   C5   28  -0.349   0.129  -0.330
    3  AAC   H8   29  -0.365   0.087  -0.431
    3  AAC   H9   30  -0.422   0.209  -0.315
    3  AAC  H10   31  -0.371   0.049  -0.259
    3  AAC   H7   32  -0.137   0.096  -0.328
    3  AAC   C6   33  -0.175   0.284  -0.417
    3  AAC  H11   34  -0.247   0.363  -0.393
    3  AAC  H12   35  -0.194   0.246  -0.518
    3  AAC   C7   36  -0.032   0.338  -0.418
    3  AAC   O3   37   0.063   0.287  -0.360
    4  AAC   O2   38  -0.035   0.469  -0.361
    4  AAC   C4   39   0.093   0.532  -0.355
    4  AAC   C5   40   0.146   0.542  -0.498
    4  AAC   H8   41   0.243   0.593  -0.501
    4  AAC   H9   42   0.076   0.598  -0.562
    4  AAC  H10   43   0.161   0.443  -0.541
    4  AAC   H7   44   0.165   0.476  -0.295
    4  AAC   C6   45   0.081   0.670  -0.294
    4  AAC  H11   46   0.007   0.717  -0.359
    4  AAC  H12   47   0.176   0.724  -0.300
    4  AAC   C7   48   0.037   0.675  -0.148
    4  AAC   O3   49   0.037   0.579  -0.071
    5  AAC   O2   50  -0.099   0.717  -0.145
    5  AAC   C4   51  -0.153   0.726  -0.013
    5  AAC   C5   52  -0.069   0.828   0.065
    5  AAC   H8   53  -0.108   0.842   0.166
    5  AAC   H9   54  -0.068   0.925   0.014
    5  AAC  H10   55   0.034   0.792   0.075
    5  AAC   H7   56  -0.151   0.631   0.040
    5  AAC   C6   57  -0.297   0.772  -0.019
    5  AAC  H11   58  -0.290   0.866  -0.074
    5  AAC  H12   59  -0.336   0.791   0.082
    5  AAC   C7   60  -0.395   0.676  -0.086
    5  AAC   O3   61  -0.373   0.559  -0.111
    6  AAC   O2   62  -0.427   0.730  -0.214
    6  AAC   C4   63  -0.518   0.649  -0.289
    6  AAC   C5   64  -0.647   0.639  -0.208
    6  AAC   H8   65  -0.724   0.582  -0.261
    6  AAC   H9   66  -0.688   0.739  -0.186
    6  AAC  H10   67  -0.629   0.588  -0.113
    6  AAC   H7   68  -0.481   0.549  -0.307
    6  AAC   C6   69  -0.546   0.713  -0.423
    6  AAC  H11   70  -0.581   0.812  -0.395
    6  AAC  H12   71  -0.626   0.659  -0.477
    6  AAC   C7   72  -0.428   0.721  -0.519
    6  AAC   O3   73  -0.322   0.660  -0.507
    7  AAC   O2   74  -0.384   0.857  -0.521
    7  AAC   C4   75  -0.273   0.880  -0.608
    7  AAC   C5   76  -0.315   0.840  -0.749
    7  AAC   H8   77  -0.235   0.859  -0.822
    7  AAC   H9   78  -0.403   0.897  -0.781
    7  AAC  H10   79  -0.338   0.734  -0.754
    7  AAC   H7   80  -0.185   0.822  -0.580
    7  AAC   C6   81  -0.232   1.026  -0.605
    7  AAC  H11   82  -0.325   1.076  -0.632
    7  AAC  H12   83  -0.155   1.047  -0.679
    7  AAC   C7   84  -0.179   1.077  -0.471
    7  AAC   O3   85  -0.143   1.007  -0.378
    8  AAC   O2   86  -0.282   1.157  -0.412
    8  AAC   C4   87  -0.245   1.212  -0.285
    8  AAC   C5   88  -0.122   1.300  -0.307
    8  AAC   H8   89  -0.091   1.349  -0.214
    8  AAC   H9   90  -0.142   1.378  -0.382
    8  AAC  H10   91  -0.037   1.240  -0.342
    8  AAC   H7   92  -0.221   1.136  -0.211
    8  AAC   C6   93  -0.359   1.295  -0.229
    8  AAC  H11   94  -0.377   1.367  -0.309
    8  AAC  H12   95  -0.328   1.348  -0.138
    8  AAC   C7   96  -0.485   1.219  -0.194
    8  AAC   O3   97  -0.494   1.097  -0.182
    9  AAC   O2   98  -0.583   1.247  -0.294
    9  AAC   C4   99  -0.707   1.181  -0.274
    9  AAC   C5  100  -0.763   1.228  -0.139
    9  AAC   H8  101  -0.861   1.184  -0.118
    9  AAC   H9  102  -0.773   1.337  -0.137
    9  AAC  H10  103  -0.696   1.198  -0.058
    9  AAC   H7  104  -0.699   1.072  -0.272
    9  AAC   C6  105  -0.805   1.216  -0.384
    9  AAC  H11  106  -0.806   1.325  -0.380
    9  AAC  H12  107  -0.905   1.176  -0.363
    9  AAC   C7  108  -0.767   1.167  -0.524
    9  AAC   O3  109  -0.682   1.083  -0.549
   10  AAD   O4  110  -0.721   1.280  -0.598
   10  AAD   C8  111  -0.682   1.248  -0.732
   10  AAD   C9  112  -0.805   1.192  -0.799
   10  AAD  H14  113  -0.788   1.171  -0.905
   10  AAD  H15  114  -0.889   1.260  -0.787
   10  AAD  H16  115  -0.832   1.096  -0.752
   10  AAD  H13  116  -0.601   1.176  -0.738
   10  AAD  C10  117  -0.634   1.375  -0.802
   10  AAD  H17  118  -0.713   1.450  -0.792
   10  AAD  H18  119  -0.614   1.355  -0.908
   10  AAD  C11  120  -0.509   1.431  -0.737
   10  AAD   O5  121  -0.452   1.384  -0.640
   10  AAD   O6  122  -0.346   1.456  -0.598
   10  AAD  H19  123  -0.327   1.536  -0.649
   28.66277    29.83060    24.75413
